      -----------------------------------------------------------      
     |                   =====================                   |     
     |                           x T B                           |     
     |                   =====================                   |     
     |                         S. Grimme                         |     
     |          Mulliken Center for Theoretical Chemistry        |     
     |                    University of Bonn                     |     
      -----------------------------------------------------------      

   * xtb version 6.5.1 (conda-forge) compiled by 'runner@Mac-1657629245115.local' on 2022-07-12

   xtb is free software: you can redistribute it and/or modify it under
   the terms of the GNU Lesser General Public License as published by
   the Free Software Foundation, either version 3 of the License, or
   (at your option) any later version.
   
   xtb is distributed in the hope that it will be useful,
   but WITHOUT ANY WARRANTY; without even the implied warranty of
   MERCHANTABILITY or FITNESS FOR A PARTICULAR PURPOSE.  See the
   GNU Lesser General Public License for more details.
   
   Cite this work as:
   * C. Bannwarth, E. Caldeweyher, S. Ehlert, A. Hansen, P. Pracht,
     J. Seibert, S. Spicher, S. Grimme, WIREs Comput. Mol. Sci., 2020, 11,
     e01493. DOI: 10.1002/wcms.1493
   
   for GFN2-xTB:
   * C. Bannwarth, S. Ehlert and S. Grimme., J. Chem. Theory Comput., 2019,
     15, 1652-1671. DOI: 10.1021/acs.jctc.8b01176
   for GFN1-xTB:
   * S. Grimme, C. Bannwarth, P. Shushkov, J. Chem. Theory Comput., 2017,
     13, 1989-2009. DOI: 10.1021/acs.jctc.7b00118
   for GFN0-xTB:
   * P. Pracht, E. Caldeweyher, S. Ehlert, S. Grimme, ChemRxiv, 2019, preprint.
     DOI: 10.26434/chemrxiv.8326202.v1
   for GFN-FF:
   * S. Spicher and S. Grimme, Angew. Chem. Int. Ed., 2020, 59, 15665-15673.
     DOI: 10.1002/anie.202004239
   
   for ALPB and GBSA implicit solvation:
   * S. Ehlert, M. Stahn, S. Spicher, S. Grimme, J. Chem. Theory Comput.,
     2021, 17, 4250-4261. DOI: 10.1021/acs.jctc.1c00471
   
   for DFT-D4:
   * E. Caldeweyher, C. Bannwarth and S. Grimme, J. Chem. Phys., 2017,
     147, 034112. DOI: 10.1063/1.4993215
   * E. Caldeweyher, S. Ehlert, A. Hansen, H. Neugebauer, S. Spicher,
     C. Bannwarth and S. Grimme, J. Chem. Phys., 2019, 150, 154122.
     DOI: 10.1063/1.5090222
   * E. Caldeweyher, J.-M. Mewes, S. Ehlert and S. Grimme, Phys. Chem. Chem. Phys.
     2020, 22, 8499-8512. DOI: 10.1039/D0CP00502A
   
   for sTDA-xTB:
   * S. Grimme and C. Bannwarth, J. Chem. Phys., 2016, 145, 054103.
     DOI: 10.1063/1.4959605
   
   in the mass-spec context:
   * V. Asgeirsson, C. Bauer and S. Grimme, Chem. Sci., 2017, 8, 4879.
     DOI: 10.1039/c7sc00601b
   * J. Koopman and S. Grimme, ACS Omega 2019, 4, 12, 15120-15133.
     DOI: 10.1021/acsomega.9b02011
   
   for metadynamics refer to:
   * S. Grimme, J. Chem. Theory Comput., 2019, 155, 2847-2862
     DOI: 10.1021/acs.jctc.9b00143
   
   for SPH calculations refer to:
   * S. Spicher and S. Grimme, J. Chem. Theory Comput., 2021, 17, 1701-1714
     DOI: 10.1021/acs.jctc.0c01306
   
   with help from (in alphabetical order)
   P. Atkinson, C. Bannwarth, F. Bohle, G. Brandenburg, E. Caldeweyher
   M. Checinski, S. Dohm, S. Ehlert, S. Ehrlich, I. Gerasimov, C. Hölzer
   A. Katbashev, J. Koopman, C. Lavigne, S. Lehtola, F. März, M. Müller,
   F. Musil, H. Neugebauer, J. Pisarek, C. Plett, P. Pracht, F. Pultar,
   J. Seibert, P. Shushkov, S. Spicher, M. Stahn, M. Steiner, T. Strunk,
   J. Stückrath, T. Rose, and J. Unsleber
   
 * started run on 2025/06/07 at 03:27:42.133     

           -------------------------------------------------
          |                Calculation Setup                |
           -------------------------------------------------

          program call               : xtb B2BeC4H4.xyz --gfn 2 --opt
          coordinate file            : B2BeC4H4.xyz
          omp threads                :                    16

   ID    Z sym.   atoms
    1    4 Be     1
    2    5 B      2, 3
    3    6 C      4-7
    4    1 H      8-11

molecular fragmentation (1/2 indicates fragments):
11122222222
# atoms in fragment 1/2:     3     8
 fragment masses (1/2) :       30.63       52.07
CMA distance (Bohr)    :   6.344
constraining FC (au)   :  0.0500

           -------------------------------------------------
          |                 G F N 2 - x T B                 |
           -------------------------------------------------

        Reference                      10.1021/acs.jctc.8b01176
      * Hamiltonian:
        H0-scaling (s, p, d)           1.850000    2.230000    2.230000
        zeta-weighting                 0.500000
      * Dispersion:
        s8                             2.700000
        a1                             0.520000
        a2                             5.000000
        s9                             5.000000
      * Repulsion:
        kExp                           1.500000    1.000000
        rExp                           1.000000
      * Coulomb:
        alpha                          2.000000
        third order                    shell-resolved
        anisotropic                    true
        a3                             3.000000
        a5                             4.000000
        cn-shift                       1.200000
        cn-exp                         4.000000
        max-rad                        5.000000


          ...................................................
          :                      SETUP                      :
          :.................................................:
          :  # basis functions                  32          :
          :  # atomic orbitals                  32          :
          :  # shells                           18          :
          :  # electrons                        28          :
          :  max. iterations                   250          :
          :  Hamiltonian                  GFN2-xTB          :
          :  restarted?                      false          :
          :  GBSA solvation                  false          :
          :  PC potential                    false          :
          :  electronic temp.          300.0000000     K    :
          :  accuracy                    1.0000000          :
          :  -> integral cutoff          0.2500000E+02      :
          :  -> integral neglect         0.1000000E-07      :
          :  -> SCF convergence          0.1000000E-05 Eh   :
          :  -> wf. convergence          0.1000000E-03 e    :
          :  Broyden damping             0.4000000          :
          ...................................................

 iter      E             dE          RMSdq      gap      omega  full diag
   1      7.7045124  0.770451E+01  0.224E+01    0.55       0.0  T
   2     -7.6372542 -0.153418E+02  0.225E+01    0.81       1.0  T
   3     -6.8293428  0.807911E+00  0.162E+01    1.10       1.0  T
   4     -3.3765265  0.345282E+01  0.212E+01    0.72       1.0  T
   5     -6.8939298 -0.351740E+01  0.152E+01    0.46       1.0  T
   6     -7.4112282 -0.517298E+00  0.164E+01    0.26       1.0  T
   7     -9.4716765 -0.206045E+01  0.143E+01    0.51       1.0  T
   8     -9.9337727 -0.462096E+00  0.134E+01    0.44       1.0  T
   9     -9.9462497 -0.124770E-01  0.134E+01    0.44       1.0  T
  10     -9.5931069  0.353143E+00  0.127E+01    0.52       1.0  T
  11     -8.5736216  0.101949E+01  0.130E+01    0.22       1.0  T
  12     -9.9633704 -0.138975E+01  0.120E+01    0.25       1.0  T
  13    -11.2933701 -0.133000E+01  0.982E+00    0.08       1.0  T
  14    -10.1436732  0.114970E+01  0.127E+01    0.38       1.0  T
  15    -10.3847269 -0.241054E+00  0.129E+01    0.27       1.0  T
  16    -10.5082743 -0.123547E+00  0.125E+01    0.26       1.0  T
  17    -11.7425883 -0.123431E+01  0.945E+00    0.35       1.0  T
  18    -10.2042704  0.153832E+01  0.116E+01    0.16       1.0  T
  19    -11.8679153 -0.166364E+01  0.831E+00    0.47       1.0  T
  20    -12.0406569 -0.172742E+00  0.746E+00    0.46       1.0  T
  21    -12.3101792 -0.269522E+00  0.454E+00    0.32       1.0  T
  22    -11.7572027  0.552977E+00  0.648E+00    0.16       1.0  T
  23    -10.7709747  0.986228E+00  0.892E+00    0.13       1.0  T
  24    -12.1746992 -0.140372E+01  0.484E+00    0.22       1.0  T
  25    -12.4243764 -0.249677E+00  0.401E+00    0.51       1.0  T
  26    -12.4694075 -0.450311E-01  0.342E+00    0.46       1.0  T
  27    -12.5598000 -0.903924E-01  0.173E+00    0.47       1.0  T
  28    -12.5482856  0.115144E-01  0.187E+00    0.46       1.0  T
  29    -12.5460503  0.223526E-02  0.184E+00    0.47       1.0  T
  30    -12.5390598  0.699047E-02  0.184E+00    0.48       1.0  T
  31    -12.5452343 -0.617444E-02  0.166E+00    0.49       1.0  T
  32    -12.5786480 -0.334138E-01  0.999E-01    0.55       1.0  T
  33    -12.5800219 -0.137382E-02  0.965E-01    0.53       1.0  T
  34    -12.5786823  0.133958E-02  0.117E+00    0.51       1.0  T
  35    -12.5841443 -0.546198E-02  0.101E+00    0.51       1.0  T
  36    -12.5888280 -0.468375E-02  0.853E-01    0.52       1.0  T
  37    -12.5887176  0.110412E-03  0.765E-01    0.53       1.0  T
  38    -12.5893062 -0.588577E-03  0.688E-01    0.54       1.0  T
  39    -12.5905049 -0.119871E-02  0.541E-01    0.53       1.0  T
  40    -12.5913639 -0.859053E-03  0.483E-01    0.53       1.0  T
  41    -12.5928813 -0.151736E-02  0.374E-01    0.53       1.0  T
  42    -12.5934307 -0.549373E-03  0.296E-01    0.53       1.0  T
  43    -12.5936021 -0.171392E-03  0.244E-01    0.53       1.0  T
  44    -12.5936761 -0.740566E-04  0.164E-01    0.53       1.0  T
  45    -12.5935894  0.867424E-04  0.114E-01    0.53       1.0  T
  46    -12.5935964 -0.705476E-05  0.875E-02    0.53       1.0  T
  47    -12.5936170 -0.205769E-04  0.776E-02    0.53       1.0  T
  48    -12.5936787 -0.617192E-04  0.529E-02    0.53       1.0  T
  49    -12.5936941 -0.153608E-04  0.437E-02    0.53       1.0  T
  50    -12.5937090 -0.148609E-04  0.340E-02    0.53       1.0  T
  51    -12.5937190 -0.100820E-04  0.262E-02    0.53       1.2  T
  52    -12.5937241 -0.508297E-05  0.180E-02    0.53       1.7  T
  53    -12.5937253 -0.121124E-05  0.961E-03    0.53       3.1  T
  54    -12.5937254 -0.987052E-07  0.698E-03    0.53       4.3  T
  55    -12.5937254  0.600639E-07  0.435E-03    0.53       6.9  T
  56    -12.5937255 -0.101846E-06  0.350E-03    0.53       8.6  T
  57    -12.5937255 -0.231284E-07  0.288E-03    0.53      10.5  T
  58    -12.5937255 -0.183184E-07  0.209E-03    0.53      14.5  T
  59    -12.5937255  0.735205E-08  0.186E-03    0.53      16.2  T
  60    -12.5937255 -0.186662E-07  0.175E-03    0.53      17.2  T
  61    -12.5937255 -0.198477E-08  0.163E-03    0.53      18.5  T
  62    -12.5937255  0.558392E-09  0.157E-03    0.53      19.1  T
  63    -12.5937255 -0.683617E-08  0.141E-03    0.53      21.5  T
  64    -12.5937255 -0.168094E-07  0.104E-03    0.53      29.1  T
  65    -12.5937256 -0.154307E-07  0.445E-04    0.53      67.8  T
  66    -12.5937256 -0.498936E-08  0.984E-05    0.53     306.6  T

   *** convergence criteria satisfied after 66 iterations ***

         #    Occupation            Energy/Eh            Energy/eV
      -------------------------------------------------------------
         1        2.0000           -0.6215194             -16.9124
       ...           ...                  ...                  ...
         8        2.0000           -0.3465564              -9.4303
         9        2.0000           -0.3394395              -9.2366
        10        2.0000           -0.3198905              -8.7047
        11        2.0000           -0.3149309              -8.5697
        12        2.0000           -0.3045923              -8.2884
        13        2.0000           -0.2862123              -7.7882
        14        1.9999           -0.2724715              -7.4143 (HOMO)
        15        0.0001           -0.2529928              -6.8843 (LUMO)
        16        0.0000           -0.2524925              -6.8707
        17                         -0.2441698              -6.6442
        18                         -0.2313039              -6.2941
        19                         -0.2257203              -6.1422
       ...                                ...                  ...
        32                          0.4563864              12.4189
      -------------------------------------------------------------
                  HL-Gap            0.0194786 Eh            0.5300 eV
             Fermi-level           -0.2629526 Eh           -7.1553 eV

 SCC (total)                   0 d,  0 h,  0 min,  0.018 sec
 SCC setup                      ...        0 min,  0.000 sec (  0.296%)
 Dispersion                     ...        0 min,  0.000 sec (  0.721%)
 classical contributions        ...        0 min,  0.000 sec (  0.560%)
 integral evaluation            ...        0 min,  0.000 sec (  1.186%)
 iterations                     ...        0 min,  0.017 sec ( 93.847%)
 molecular gradient             ...        0 min,  0.000 sec (  2.670%)
 printout                       ...        0 min,  0.000 sec (  0.643%)

         :::::::::::::::::::::::::::::::::::::::::::::::::::::
         ::                     SUMMARY                     ::
         :::::::::::::::::::::::::::::::::::::::::::::::::::::
         :: total energy             -12.532012749594 Eh    ::
         :: gradient norm              0.336940314734 Eh/a0 ::
         :: HOMO-LUMO gap              0.530040765521 eV    ::
         ::.................................................::
         :: SCC energy               -12.593725565784 Eh    ::
         :: -> isotropic ES           -0.063854897296 Eh    ::
         :: -> anisotropic ES          0.017187565153 Eh    ::
         :: -> anisotropic XC         -0.013190695660 Eh    ::
         :: -> dispersion             -0.008729944563 Eh    ::
         :: repulsion energy           0.061718212402 Eh    ::
         :: add. restraining           0.000000000000 Eh    ::
         :: total charge              -0.000000000004 e     ::
         :::::::::::::::::::::::::::::::::::::::::::::::::::::

      ----------------------------------------------------------- 
     |                   =====================                   |
     |                        A N C O P T                        |
     |                   =====================                   |
     |               Approximate Normal Coordinate               |
     |                Rational Function Optimizer                |
      ----------------------------------------------------------- 

          ...................................................
          :                      SETUP                      :
          :.................................................:
          :   optimization level            normal          :
          :   max. optcycles                   200          :
          :   ANC micro-cycles                  20          :
          :   degrees of freedom                27          :
          :.................................................:
          :   RF solver                   davidson          :
          :   write xtbopt.log                true          :
          :   linear?                        false          :
          :   energy convergence         0.5000000E-05 Eh   :
          :   grad. convergence          0.1000000E-02 Eh/α :
          :   maximium RF displ.         1.0000000          :
          :   Hlow (freq-cutoff)         0.1000000E-01      :
          :   Hmax (freq-cutoff)         5.0000000          :
          :   S6 in model hess.         20.0000000          :
          ...................................................

generating ANC from model Hessian ...
Using Lindh-Hessian (1995)
 Shifting diagonal of input Hessian by    1.0043891490831838E-002
 Lowest  eigenvalues of input Hessian
    0.010000    0.000000    0.000000    0.000000    0.000000    0.000000
    0.000000    0.010239    0.010272    0.010643    0.010745    0.011224
    0.011578    0.012335    0.013629    0.016204    0.020411    0.027698
 Highest eigenvalues
    0.247366    0.259143    0.276108    0.305883    0.338965    0.409169


........................................................................
.............................. CYCLE    1 ..............................
........................................................................
   1    -12.5937256 -0.125937E+02  0.292E-05    0.53       0.0  T
   2    -12.5937256  0.340108E-09  0.137E-04    0.53     220.1  T
   3    -12.5937256 -0.257836E-09  0.797E-05    0.53     378.1  T
     SCC iter.                  ...        0 min,  0.001 sec
     gradient                   ...        0 min,  0.001 sec
 * total energy  :   -12.5320127 Eh     change       -0.2463789E-09 Eh
   gradient norm :     0.3368353 Eh/α   predicted     0.0000000E+00 (-100.00%)
   displ. norm   :     0.8239555 α      lambda       -0.2666307E+00
   maximum displ.:     0.4760241 α      in ANC's #11, #19, #22, ...

........................................................................
.............................. CYCLE    2 ..............................
........................................................................
   1    -12.7941462 -0.127941E+02  0.237E+00    0.46       0.0  T
   2    -12.6603966  0.133750E+00  0.298E+00    0.42       1.0  T
   3    -12.5231719  0.137225E+00  0.389E+00    0.57       1.0  T
   4    -12.6709980 -0.147826E+00  0.263E+00    0.54       1.0  T
   5    -12.7752527 -0.104255E+00  0.147E+00    0.42       1.0  T
   6    -12.7901938 -0.149411E-01  0.894E-01    0.45       1.0  T
   7    -12.7807517  0.944208E-02  0.114E+00    0.53       1.0  T
   8    -12.8002401 -0.194883E-01  0.694E-01    0.48       1.0  T
   9    -12.8009616 -0.721598E-03  0.644E-01    0.49       1.0  T
  10    -12.8043767 -0.341507E-02  0.442E-01    0.48       1.0  T
  11    -12.8071628 -0.278603E-02  0.822E-02    0.47       1.0  T
  12    -12.8072352 -0.724374E-04  0.548E-02    0.47       1.0  T
  13    -12.8072223  0.129346E-04  0.511E-02    0.48       1.0  T
  14    -12.8072634 -0.411735E-04  0.222E-02    0.47       1.4  T
  15    -12.8072726 -0.918242E-05  0.127E-02    0.47       2.4  T
  16    -12.8072743 -0.173027E-05  0.435E-03    0.47       6.9  T
  17    -12.8072746 -0.212663E-06  0.199E-03    0.47      15.2  T
  18    -12.8072746 -0.389281E-07  0.791E-04    0.47      38.1  T
  19    -12.8072746 -0.507863E-08  0.248E-04    0.47     121.5  T
     SCC iter.                  ...        0 min,  0.004 sec
     gradient                   ...        0 min,  0.001 sec
 * total energy  :   -12.7496889 Eh     change       -0.2176762E+00 Eh
   gradient norm :     0.2789356 Eh/α   predicted    -0.2238235E+00 (   2.82%)
   displ. norm   :     0.9425927 α      lambda       -0.2607609E+00
   maximum displ.:     0.7637478 α      in ANC's #19, #27, #17, ...

........................................................................
.............................. CYCLE    3 ..............................
........................................................................
   1    -13.0496746 -0.130497E+02  0.344E+00    0.40       0.0  T
   2    -12.6654599  0.384215E+00  0.568E+00    0.29       1.0  T
   3    -13.0777004 -0.412241E+00  0.245E+00    0.37       1.0  T
   4    -12.7576043  0.320096E+00  0.490E+00    0.48       1.0  T
   5    -12.9894419 -0.231838E+00  0.254E+00    0.38       1.0  T
   6    -13.0789173 -0.894754E-01  0.130E+00    0.42       1.0  T
   7    -13.1103671 -0.314499E-01  0.797E-01    0.46       1.0  T
   8    -13.1156308 -0.526370E-02  0.246E-01    0.37       1.0  T
   9    -13.1135767  0.205419E-02  0.398E-01    0.45       1.0  T
  10    -13.1155848 -0.200818E-02  0.201E-01    0.40       1.0  T
  11    -13.1157796 -0.194803E-03  0.147E-01    0.40       1.0  T
  12    -13.1160381 -0.258494E-03  0.663E-02    0.40       1.0  T
  13    -13.1160071  0.310446E-04  0.570E-02    0.39       1.0  T
  14    -13.1160764 -0.693378E-04  0.247E-02    0.39       1.2  T
  15    -13.1160806 -0.418924E-05  0.131E-02    0.39       2.3  T
  16    -13.1160828 -0.214609E-05  0.726E-03    0.39       4.2  T
  17    -13.1160836 -0.804617E-06  0.372E-03    0.39       8.1  T
  18    -13.1160838 -0.228697E-06  0.102E-03    0.39      29.7  T
  19    -13.1160838 -0.151685E-07  0.248E-04    0.39     121.6  T
  20    -13.1160838 -0.478801E-09  0.138E-04    0.39     219.2  T
     SCC iter.                  ...        0 min,  0.005 sec
     gradient                   ...        0 min,  0.000 sec
 * total energy  :   -12.9758325 Eh     change       -0.2261436E+00 Eh
   gradient norm :     0.2393345 Eh/α   predicted    -0.2462210E+00 (   8.88%)
   displ. norm   :     0.8811097 α      lambda       -0.1974565E+00
   maximum displ.:     0.7251045 α      in ANC's #19, #11, #21, ...

........................................................................
.............................. CYCLE    4 ..............................
........................................................................
   1    -13.2734048 -0.132734E+02  0.441E+00    0.30       0.0  T
   2    -12.8523244  0.421080E+00  0.546E+00    0.61       1.0  T
   3    -12.8428299  0.949444E-02  0.544E+00    0.28       1.0  T
   4    -13.1685920 -0.325762E+00  0.390E+00    0.35       1.0  T
   5    -13.3976143 -0.229022E+00  0.179E+00    0.55       1.0  T
   6    -13.3757160  0.218983E-01  0.184E+00    0.35       1.0  T
   7    -13.3864366 -0.107206E-01  0.140E+00    0.53       1.0  T
   8    -13.4015410 -0.151044E-01  0.937E-01    0.55       1.0  T
   9    -13.4077409 -0.619993E-02  0.520E-01    0.52       1.0  T
  10    -13.4092396 -0.149869E-02  0.356E-01    0.52       1.0  T
  11    -13.4092286  0.110057E-04  0.274E-01    0.51       1.0  T
  12    -13.4095206 -0.291989E-03  0.218E-01    0.51       1.0  T
  13    -13.4096629 -0.142271E-03  0.187E-01    0.51       1.0  T
  14    -13.4097826 -0.119706E-03  0.148E-01    0.51       1.0  T
  15    -13.4098776 -0.950437E-04  0.104E-01    0.51       1.0  T
  16    -13.4099750 -0.974041E-04  0.115E-02    0.51       2.6  T
  17    -13.4099757 -0.690382E-06  0.292E-03    0.51      10.3  T
  18    -13.4099757  0.377597E-08  0.245E-03    0.51      12.3  T
  19    -13.4099758 -0.296018E-07  0.596E-04    0.51      50.6  T
  20    -13.4099758 -0.185068E-08  0.116E-04    0.51     261.0  T
     SCC iter.                  ...        0 min,  0.004 sec
     gradient                   ...        0 min,  0.001 sec
 * total energy  :   -13.0636729 Eh     change       -0.8784039E-01 Eh
   gradient norm :     0.2700056 Eh/α   predicted    -0.1753763E+00 (  99.65%)
   displ. norm   :     0.6622851 α      lambda       -0.1291188E+00
   maximum displ.:     0.3308389 α      in ANC's #9, #7, #21, ...

........................................................................
.............................. CYCLE    5 ..............................
........................................................................
   1    -13.3845003 -0.133845E+02  0.216E+00    1.00       0.0  T
   2    -13.3722232  0.122770E-01  0.181E+00    0.96       1.0  T
   3    -13.3270393  0.451840E-01  0.184E+00    0.96       1.0  T
   4    -13.2304896  0.965497E-01  0.243E+00    1.08       1.0  T
   5    -13.3740146 -0.143525E+00  0.945E-01    0.85       1.0  T
   6    -13.3899358 -0.159212E-01  0.482E-01    1.01       1.0  T
   7    -13.3941390 -0.420321E-02  0.295E-01    0.97       1.0  T
   8    -13.3946833 -0.544244E-03  0.206E-01    0.97       1.0  T
   9    -13.3946179  0.654218E-04  0.189E-01    0.98       1.0  T
  10    -13.3947241 -0.106279E-03  0.419E-02    0.97       1.0  T
  11    -13.3947487 -0.245655E-04  0.287E-02    0.97       1.1  T
  12    -13.3947559 -0.719393E-05  0.132E-02    0.97       2.3  T
  13    -13.3947568 -0.897180E-06  0.252E-03    0.97      12.0  T
  14    -13.3947569 -0.103853E-06  0.114E-03    0.97      26.5  T
  15    -13.3947569 -0.119790E-07  0.605E-04    0.97      49.8  T
  16    -13.3947569 -0.683440E-08  0.113E-04    0.97     267.3  T
     SCC iter.                  ...        0 min,  0.003 sec
     gradient                   ...        0 min,  0.000 sec
 * total energy  :   -13.0803632 Eh     change       -0.1669024E-01 Eh
   gradient norm :     0.3383615 Eh/α   predicted    -0.9287655E-01 ( 456.47%)
   displ. norm   :     0.5817505 α      lambda       -0.1306285E+00
   maximum displ.:     0.2617562 α      in ANC's #19, #10, #6, ...

........................................................................
.............................. CYCLE    6 ..............................
........................................................................
   1    -13.2668515 -0.132669E+02  0.257E+00    0.96       0.0  T
   2    -12.8247790  0.442073E+00  0.501E+00    0.33       1.0  T
   3    -13.2272125 -0.402434E+00  0.203E+00    0.79       1.0  T
   4    -13.1174214  0.109791E+00  0.287E+00    0.83       1.0  T
   5    -13.2794001 -0.161979E+00  0.108E+00    0.63       1.0  T
   6    -13.3093231 -0.299229E-01  0.571E-01    0.82       1.0  T
   7    -13.3119339 -0.261080E-02  0.429E-01    0.77       1.0  T
   8    -13.3117791  0.154781E-03  0.371E-01    0.79       1.0  T
   9    -13.3114845  0.294596E-03  0.347E-01    0.79       1.0  T
  10    -13.3119989 -0.514447E-03  0.131E-01    0.77       1.0  T
  11    -13.3120615 -0.626056E-04  0.878E-02    0.77       1.0  T
  12    -13.3120639 -0.239005E-05  0.734E-02    0.77       1.0  T
  13    -13.3120754 -0.114920E-04  0.146E-02    0.76       2.1  T
  14    -13.3120786 -0.316089E-05  0.520E-03    0.76       5.8  T
  15    -13.3120786 -0.263608E-07  0.239E-03    0.77      12.6  T
  16    -13.3120787 -0.531785E-07  0.102E-03    0.77      29.4  T
  17    -13.3120787 -0.648106E-08  0.242E-04    0.77     124.6  T
  18    -13.3120787 -0.137904E-08  0.491E-05    0.77     614.3  T
     SCC iter.                  ...        0 min,  0.003 sec
     gradient                   ...        0 min,  0.001 sec
 * total energy  :   -13.1009004 Eh     change       -0.2053725E-01 Eh
   gradient norm :     0.1800238 Eh/α   predicted    -0.8741871E-01 ( 325.66%)
   displ. norm   :     0.5737264 α      lambda       -0.7288502E-01
   maximum displ.:     0.2560548 α      in ANC's #19, #7, #14, ...

........................................................................
.............................. CYCLE    7 ..............................
........................................................................
   1    -13.3966323 -0.133966E+02  0.174E+00    0.77       0.0  T
   2    -13.3483872  0.482451E-01  0.204E+00    0.65       1.0  T
   3    -13.3623184 -0.139312E-01  0.170E+00    0.78       1.0  T
   4    -13.3893667 -0.270483E-01  0.110E+00    0.77       1.0  T
   5    -13.4011153 -0.117485E-01  0.801E-01    0.80       1.0  T
   6    -13.4136629 -0.125476E-01  0.256E-01    0.75       1.0  T
   7    -13.4136004  0.624649E-04  0.224E-01    0.75       1.0  T
   8    -13.4138405 -0.240029E-03  0.182E-01    0.76       1.0  T
   9    -13.4141213 -0.280803E-03  0.744E-02    0.74       1.0  T
  10    -13.4142176 -0.963333E-04  0.377E-02    0.75       1.0  T
  11    -13.4142319 -0.143163E-04  0.155E-02    0.75       1.9  T
  12    -13.4142325 -0.612833E-06  0.991E-03    0.75       3.0  T
  13    -13.4142343 -0.181759E-05  0.122E-03    0.75      24.7  T
  14    -13.4142343  0.540787E-09  0.573E-04    0.75      52.6  T
  15    -13.4142343 -0.256949E-08  0.327E-04    0.75      92.2  T
     SCC iter.                  ...        0 min,  0.003 sec
     gradient                   ...        0 min,  0.001 sec
 * total energy  :   -13.1446738 Eh     change       -0.4377337E-01 Eh
   gradient norm :     0.1318530 Eh/α   predicted    -0.4843798E-01 (  10.66%)
   displ. norm   :     0.7147218 α      lambda       -0.5534529E-01
   maximum displ.:     0.3039876 α      in ANC's #19, #5, #7, ...

........................................................................
.............................. CYCLE    8 ..............................
........................................................................
   1    -13.4344506 -0.134345E+02  0.234E+00    0.56       0.0  T
   2    -13.3534401  0.810105E-01  0.249E+00    1.06       1.0  T
   3    -13.3764820 -0.230419E-01  0.206E+00    0.56       1.0  T
   4    -13.3650558  0.114262E-01  0.231E+00    0.54       1.0  T
   5    -13.4549729 -0.899171E-01  0.778E-01    0.78       1.0  T
   6    -13.4604164 -0.544353E-02  0.411E-01    0.64       1.0  T
   7    -13.4633051 -0.288875E-02  0.257E-01    0.67       1.0  T
   8    -13.4632978  0.731183E-05  0.238E-01    0.68       1.0  T
   9    -13.4631948  0.102997E-03  0.146E-01    0.66       1.0  T
  10    -13.4634288 -0.234010E-03  0.723E-02    0.69       1.0  T
  11    -13.4635119 -0.830908E-04  0.218E-02    0.69       1.4  T
  12    -13.4635160 -0.413118E-05  0.648E-03    0.68       4.7  T
  13    -13.4635164 -0.322233E-06  0.233E-03    0.68      12.9  T
  14    -13.4635164 -0.725245E-07  0.100E-03    0.68      30.0  T
  15    -13.4635164 -0.436877E-08  0.303E-04    0.68      99.4  T
  16    -13.4635165 -0.115448E-08  0.123E-04    0.68     244.5  T
     SCC iter.                  ...        0 min,  0.004 sec
     gradient                   ...        0 min,  0.001 sec
 * total energy  :   -13.1073851 Eh     change        0.3728872E-01 Eh
   gradient norm :     0.5085420 Eh/α   predicted    -0.4180859E-01 (-212.12%)
   displ. norm   :     0.3564147 α      lambda       -0.1497863E+00
   maximum displ.:     0.1962473 α      in ANC's #23, #6, #8, ...

........................................................................
.............................. CYCLE    9 ..............................
........................................................................
   1    -13.4503228 -0.134503E+02  0.145E+00    0.86       0.0  T
   2    -13.4237827  0.265402E-01  0.164E+00    0.69       1.0  T
   3    -13.4513164 -0.275337E-01  0.812E-01    0.90       1.0  T
   4    -13.4468086  0.450785E-02  0.789E-01    0.71       1.0  T
   5    -13.4557618 -0.895321E-02  0.363E-01    0.80       1.0  T
   6    -13.4576971 -0.193537E-02  0.124E-01    0.83       1.0  T
   7    -13.4578530 -0.155835E-03  0.802E-02    0.82       1.0  T
   8    -13.4578630 -0.100355E-04  0.644E-02    0.82       1.0  T
   9    -13.4578859 -0.228815E-04  0.406E-02    0.82       1.0  T
  10    -13.4579063 -0.204006E-04  0.136E-02    0.82       2.2  T
  11    -13.4579075 -0.120665E-05  0.588E-03    0.82       5.1  T
  12    -13.4579079 -0.380436E-06  0.145E-03    0.82      20.8  T
  13    -13.4579079 -0.194475E-07  0.504E-04    0.82      59.8  T
  14    -13.4579079 -0.192169E-08  0.768E-05    0.82     392.7  T
     SCC iter.                  ...        0 min,  0.003 sec
     gradient                   ...        0 min,  0.001 sec
 * total energy  :   -13.1652295 Eh     change       -0.5784448E-01 Eh
   gradient norm :     0.1160950 Eh/α   predicted    -0.8440692E-01 (  45.92%)
   displ. norm   :     0.7036461 α      lambda       -0.5005165E-01
   maximum displ.:     0.4129961 α      in ANC's #10, #5, #13, ...

........................................................................
.............................. CYCLE   10 ..............................
........................................................................
   1    -13.4737592 -0.134738E+02  0.247E+00    0.75       0.0  T
   2    -13.4196599  0.540993E-01  0.223E+00    0.44       1.0  T
   3    -13.4139063  0.575358E-02  0.230E+00    0.81       1.0  T
   4    -13.2024718  0.211434E+00  0.311E+00    0.86       1.0  T
   5    -13.4616357 -0.259164E+00  0.105E+00    0.63       1.0  T
   6    -13.4807593 -0.191236E-01  0.666E-01    0.65       1.0  T
   7    -13.4861520 -0.539272E-02  0.347E-01    0.66       1.0  T
   8    -13.4868175 -0.665508E-03  0.271E-01    0.66       1.0  T
   9    -13.4870554 -0.237891E-03  0.217E-01    0.66       1.0  T
  10    -13.4873012 -0.245847E-03  0.711E-02    0.65       1.0  T
  11    -13.4873391 -0.378941E-04  0.481E-02    0.65       1.0  T
  12    -13.4873413 -0.216630E-05  0.394E-02    0.65       1.0  T
  13    -13.4873462 -0.492740E-05  0.746E-03    0.65       4.0  T
  14    -13.4873471 -0.900662E-06  0.445E-03    0.65       6.8  T
  15    -13.4873473 -0.173677E-06  0.159E-03    0.65      19.0  T
  16    -13.4873473 -0.439383E-08  0.755E-04    0.65      39.9  T
  17    -13.4873473 -0.226033E-08  0.921E-05    0.65     327.3  T
     SCC iter.                  ...        0 min,  0.004 sec
     gradient                   ...        0 min,  0.001 sec
 * total energy  :   -13.1392455 Eh     change        0.2598403E-01 Eh
   gradient norm :     0.3687129 Eh/α   predicted    -0.3741656E-01 (-244.00%)
   displ. norm   :     0.3804630 α      lambda       -0.1024512E+00
   maximum displ.:     0.2357321 α      in ANC's #10, #27, #7, ...

........................................................................
.............................. CYCLE   11 ..............................
........................................................................
   1    -13.4682528 -0.134683E+02  0.146E+00    0.46       0.0  T
   2    -13.4375893  0.306635E-01  0.151E+00    0.67       1.0  T
   3    -13.4447938 -0.720443E-02  0.126E+00    0.49       1.0  T
   4    -13.4275504  0.172433E-01  0.153E+00    0.43       1.0  T
   5    -13.4730872 -0.455368E-01  0.490E-01    0.58       1.0  T
   6    -13.4748377 -0.175055E-02  0.328E-01    0.53       1.0  T
   7    -13.4760987 -0.126098E-02  0.203E-01    0.54       1.0  T
   8    -13.4762469 -0.148151E-03  0.199E-01    0.54       1.0  T
   9    -13.4764012 -0.154312E-03  0.109E-01    0.54       1.0  T
  10    -13.4765571 -0.155910E-03  0.261E-02    0.54       1.2  T
  11    -13.4765669 -0.983386E-05  0.119E-02    0.54       2.5  T
  12    -13.4765682 -0.126885E-05  0.529E-03    0.54       5.7  T
  13    -13.4765682 -0.993231E-08  0.172E-03    0.54      17.5  T
  14    -13.4765682 -0.412196E-07  0.595E-04    0.54      50.6  T
  15    -13.4765682 -0.221605E-08  0.204E-04    0.54     147.6  T
     SCC iter.                  ...        0 min,  0.004 sec
     gradient                   ...        0 min,  0.001 sec
 * total energy  :   -13.1827093 Eh     change       -0.4346376E-01 Eh
   gradient norm :     0.0664157 Eh/α   predicted    -0.5864060E-01 (  34.92%)
   displ. norm   :     0.6929151 α      lambda       -0.2439814E-01
   maximum displ.:     0.3850906 α      in ANC's #6, #13, #9, ...

........................................................................
.............................. CYCLE   12 ..............................
........................................................................
   1    -13.4801781 -0.134802E+02  0.175E+00    0.60       0.0  T
   2    -13.4648976  0.152805E-01  0.135E+00    0.68       1.0  T
   3    -13.4199003  0.449973E-01  0.194E+00    0.54       1.0  T
   4    -13.4466689 -0.267686E-01  0.138E+00    0.71       1.0  T
   5    -13.4798143 -0.331454E-01  0.362E-01    0.63       1.0  T
   6    -13.4823746 -0.256036E-02  0.250E-01    0.62       1.0  T
   7    -13.4828459 -0.471257E-03  0.208E-01    0.64       1.0  T
   8    -13.4828691 -0.232631E-04  0.157E-01    0.63       1.0  T
   9    -13.4830786 -0.209455E-03  0.648E-02    0.63       1.0  T
  10    -13.4831602 -0.815745E-04  0.213E-02    0.63       1.4  T
  11    -13.4831632 -0.307109E-05  0.188E-02    0.63       1.6  T
  12    -13.4831638 -0.593199E-06  0.804E-03    0.63       3.7  T
  13    -13.4831644 -0.565039E-06  0.288E-03    0.63      10.5  T
  14    -13.4831645 -0.107090E-06  0.166E-03    0.63      18.2  T
  15    -13.4831645 -0.325645E-07  0.386E-04    0.63      78.0  T
  16    -13.4831645  0.389150E-09  0.246E-04    0.63     122.7  T
     SCC iter.                  ...        0 min,  0.004 sec
     gradient                   ...        0 min,  0.001 sec
 * total energy  :   -13.1891646 Eh     change       -0.6455367E-02 Eh
   gradient norm :     0.0948079 Eh/α   predicted    -0.1805624E-01 ( 179.71%)
   displ. norm   :     0.5282155 α      lambda       -0.2719298E-01
   maximum displ.:     0.3016526 α      in ANC's #6, #13, #1, ...

........................................................................
.............................. CYCLE   13 ..............................
........................................................................
   1    -13.4878004 -0.134878E+02  0.141E+00    0.51       0.0  T
   2    -13.4540008  0.337996E-01  0.164E+00    0.45       1.0  T
   3    -13.4789001 -0.248993E-01  0.118E+00    0.58       1.0  T
   4    -13.4614373  0.174629E-01  0.124E+00    0.43       1.0  T
   5    -13.4911115 -0.296742E-01  0.393E-01    0.52       1.0  T
   6    -13.4934267 -0.231519E-02  0.185E-01    0.52       1.0  T
   7    -13.4939588 -0.532117E-03  0.724E-02    0.51       1.0  T
   8    -13.4938892  0.696424E-04  0.903E-02    0.52       1.0  T
   9    -13.4939406 -0.514372E-04  0.451E-02    0.51       1.0  T
  10    -13.4939756 -0.350273E-04  0.132E-02    0.51       2.3  T
  11    -13.4939759 -0.250036E-06  0.116E-02    0.51       2.6  T
  12    -13.4939774 -0.146939E-05  0.677E-03    0.51       4.5  T
  13    -13.4939782 -0.832265E-06  0.109E-03    0.51      27.6  T
  14    -13.4939782 -0.240457E-07  0.497E-04    0.51      60.7  T
  15    -13.4939782 -0.121819E-08  0.141E-04    0.51     213.7  T
     SCC iter.                  ...        0 min,  0.004 sec
     gradient                   ...        0 min,  0.001 sec
 * total energy  :   -13.2036005 Eh     change       -0.1443585E-01 Eh
   gradient norm :     0.0636201 Eh/α   predicted    -0.1739007E-01 (  20.46%)
   displ. norm   :     0.5892261 α      lambda       -0.2102318E-01
   maximum displ.:     0.2588730 α      in ANC's #6, #4, #10, ...

........................................................................
.............................. CYCLE   14 ..............................
........................................................................
   1    -13.5460269 -0.135460E+02  0.124E+00    0.48       0.0  T
   2    -13.5190234  0.270035E-01  0.138E+00    0.37       1.0  T
   3    -13.5126818  0.634163E-02  0.137E+00    0.61       1.0  T
   4    -13.5265934 -0.139117E-01  0.106E+00    0.46       1.0  T
   5    -13.5454737 -0.188803E-01  0.483E-01    0.42       1.0  T
   6    -13.5490949 -0.362114E-02  0.188E-01    0.48       1.0  T
   7    -13.5496706 -0.575724E-03  0.134E-01    0.48       1.0  T
   8    -13.5497200 -0.493765E-04  0.114E-01    0.48       1.0  T
   9    -13.5496868  0.332384E-04  0.107E-01    0.48       1.0  T
  10    -13.5497813 -0.945149E-04  0.119E-02    0.48       2.5  T
  11    -13.5497826 -0.132908E-05  0.994E-03    0.48       3.0  T
  12    -13.5497831 -0.466861E-06  0.761E-03    0.48       4.0  T
  13    -13.5497840 -0.909097E-06  0.165E-03    0.48      18.3  T
  14    -13.5497840 -0.457524E-07  0.402E-04    0.48      74.9  T
  15    -13.5497840 -0.593390E-09  0.205E-04    0.48     146.8  T
     SCC iter.                  ...        0 min,  0.004 sec
     gradient                   ...        0 min,  0.001 sec
 * total energy  :   -13.2086862 Eh     change       -0.5085681E-02 Eh
   gradient norm :     0.1289909 Eh/α   predicted    -0.1416112E-01 ( 178.45%)
   displ. norm   :     0.5552171 α      lambda       -0.2185206E-01
   maximum displ.:     0.3926139 α      in ANC's #6, #5, #1, ...

........................................................................
.............................. CYCLE   15 ..............................
........................................................................
   1    -13.5248762 -0.135249E+02  0.122E+00    0.43       0.0  T
   2    -13.5133105  0.115657E-01  0.113E+00    0.53       1.0  T
   3    -13.4819634  0.313471E-01  0.157E+00    0.38       1.0  T
   4    -13.5194639 -0.375005E-01  0.673E-01    0.48       1.0  T
   5    -13.5226211 -0.315713E-02  0.451E-01    0.45       1.0  T
   6    -13.5264636 -0.384250E-02  0.111E-01    0.47       1.0  T
   7    -13.5265897 -0.126130E-03  0.625E-02    0.47       1.0  T
   8    -13.5265839  0.576823E-05  0.550E-02    0.47       1.0  T
   9    -13.5265581  0.258120E-04  0.463E-02    0.46       1.0  T
  10    -13.5266031 -0.450079E-04  0.132E-02    0.47       2.3  T
  11    -13.5266049 -0.177319E-05  0.637E-03    0.47       4.7  T
  12    -13.5266050 -0.967807E-07  0.548E-03    0.47       5.5  T
  13    -13.5266053 -0.353494E-06  0.170E-03    0.47      17.8  T
  14    -13.5266054 -0.216382E-07  0.922E-04    0.47      32.7  T
  15    -13.5266054 -0.138422E-07  0.172E-04    0.47     175.5  T
     SCC iter.                  ...        0 min,  0.003 sec
     gradient                   ...        0 min,  0.001 sec
 * total energy  :   -13.2219409 Eh     change       -0.1325473E-01 Eh
   gradient norm :     0.0372703 Eh/α   predicted    -0.1429416E-01 (   7.84%)
   displ. norm   :     0.7535668 α      lambda       -0.1884322E-01
   maximum displ.:     0.4448917 α      in ANC's #6, #8, #4, ...

........................................................................
.............................. CYCLE   16 ..............................
........................................................................
   1    -13.5198050 -0.135198E+02  0.156E+00    0.44       0.0  T
   2    -13.5185654  0.123961E-02  0.108E+00    0.52       1.0  T
   3    -13.4898512  0.287142E-01  0.129E+00    0.42       1.0  T
   4    -13.4692917  0.205595E-01  0.155E+00    0.56       1.0  T
   5    -13.5192715 -0.499798E-01  0.351E-01    0.46       1.0  T
   6    -13.5213783 -0.210679E-02  0.129E-01    0.49       1.0  T
   7    -13.5215782 -0.199929E-03  0.796E-02    0.49       1.0  T
   8    -13.5216049 -0.266944E-04  0.586E-02    0.49       1.0  T
   9    -13.5216033  0.168133E-05  0.516E-02    0.49       1.0  T
  10    -13.5216126 -0.931238E-05  0.237E-02    0.49       1.3  T
  11    -13.5216241 -0.115729E-04  0.755E-03    0.49       4.0  T
  12    -13.5216244 -0.272098E-06  0.524E-03    0.49       5.8  T
  13    -13.5216248 -0.381432E-06  0.156E-03    0.49      19.4  T
  14    -13.5216248 -0.781548E-08  0.771E-04    0.49      39.1  T
  15    -13.5216248 -0.693954E-08  0.239E-04    0.49     126.3  T
     SCC iter.                  ...        0 min,  0.003 sec
     gradient                   ...        0 min,  0.001 sec
 * total energy  :   -13.2145059 Eh     change        0.7435044E-02 Eh
   gradient norm :     0.1447989 Eh/α   predicted    -0.1477179E-01 (-298.68%)
   displ. norm   :     0.3810089 α      lambda       -0.3410299E-01
   maximum displ.:     0.1966707 α      in ANC's #8, #7, #5, ...

........................................................................
.............................. CYCLE   17 ..............................
........................................................................
   1    -13.5279233 -0.135279E+02  0.106E+00    0.50       0.0  T
   2    -13.5073073  0.206160E-01  0.125E+00    0.48       1.0  T
   3    -13.5167915 -0.948421E-02  0.930E-01    0.59       1.0  T
   4    -13.5134298  0.336173E-02  0.991E-01    0.42       1.0  T
   5    -13.5248553 -0.114256E-01  0.480E-01    0.50       1.0  T
   6    -13.5301185 -0.526315E-02  0.132E-01    0.51       1.0  T
   7    -13.5303281 -0.209608E-03  0.794E-02    0.51       1.0  T
   8    -13.5303428 -0.147238E-04  0.654E-02    0.51       1.0  T
   9    -13.5303725 -0.297149E-04  0.185E-02    0.51       1.6  T
  10    -13.5303789 -0.638646E-05  0.143E-02    0.51       2.1  T
  11    -13.5303814 -0.251655E-05  0.636E-03    0.51       4.7  T
  12    -13.5303818 -0.335090E-06  0.407E-03    0.51       7.4  T
  13    -13.5303819 -0.135115E-06  0.216E-03    0.51      14.0  T
  14    -13.5303820 -0.778494E-07  0.476E-04    0.51      63.3  T
  15    -13.5303820 -0.290014E-08  0.630E-05    0.51     478.6  T
     SCC iter.                  ...        0 min,  0.004 sec
     gradient                   ...        0 min,  0.001 sec
 * total energy  :   -13.2328474 Eh     change       -0.1834156E-01 Eh
   gradient norm :     0.0482560 Eh/α   predicted    -0.1952684E-01 (   6.46%)
   displ. norm   :     0.6252073 α      lambda       -0.1758348E-01
   maximum displ.:     0.3197384 α      in ANC's #8, #1, #4, ...

........................................................................
.............................. CYCLE   18 ..............................
........................................................................
   1    -13.5750070 -0.135750E+02  0.198E+00    0.37       0.0  T
   2    -13.5531911  0.218159E-01  0.166E+00    0.55       1.0  T
   3    -13.3123508  0.240840E+00  0.450E+00    0.29       1.0  T
   4    -13.5656784 -0.253328E+00  0.982E-01    0.37       1.0  T
   5    -13.5346070  0.310714E-01  0.142E+00    0.39       1.0  T
   6    -13.5771752 -0.425682E-01  0.383E-01    0.42       1.0  T
   7    -13.5772533 -0.781258E-04  0.376E-01    0.43       1.0  T
   8    -13.5770561  0.197214E-03  0.357E-01    0.43       1.0  T
   9    -13.5769889  0.671539E-04  0.315E-01    0.43       1.0  T
  10    -13.5778952 -0.906272E-03  0.193E-01    0.42       1.0  T
  11    -13.5779770 -0.818123E-04  0.176E-01    0.42       1.0  T
  12    -13.5780236 -0.466211E-04  0.161E-01    0.42       1.0  T
  13    -13.5781119 -0.882942E-04  0.975E-02    0.41       1.0  T
  14    -13.5781603 -0.483732E-04  0.340E-02    0.41       1.0  T
  15    -13.5781533  0.700980E-05  0.482E-02    0.41       1.0  T
  16    -13.5781657 -0.124012E-04  0.149E-02    0.41       2.0  T
  17    -13.5781669 -0.119378E-05  0.227E-03    0.41      13.3  T
  18    -13.5781669 -0.330168E-07  0.152E-03    0.41      19.8  T
  19    -13.5781669 -0.934905E-08  0.481E-04    0.41      62.7  T
  20    -13.5781669 -0.948017E-09  0.559E-05    0.41     539.5  T
     SCC iter.                  ...        0 min,  0.011 sec
     gradient                   ...        0 min,  0.001 sec
 * total energy  :   -13.2158767 Eh     change        0.1697070E-01 Eh
   gradient norm :     0.2093383 Eh/α   predicted    -0.1222828E-01 (-172.06%)
   displ. norm   :     0.3770184 α      lambda       -0.4354149E-01
   maximum displ.:     0.2420731 α      in ANC's #6, #8, #9, ...

........................................................................
.............................. CYCLE   19 ..............................
........................................................................
   1    -13.5660333 -0.135660E+02  0.128E+00    0.49       0.0  T
   2    -13.5179139  0.481194E-01  0.196E+00    0.41       1.0  T
   3    -13.5590885 -0.411746E-01  0.968E-01    0.57       1.0  T
   4    -13.5471976  0.118909E-01  0.113E+00    0.39       1.0  T
   5    -13.5611758 -0.139783E-01  0.593E-01    0.48       1.0  T
   6    -13.5692241 -0.804826E-02  0.181E-01    0.49       1.0  T
   7    -13.5697019 -0.477846E-03  0.682E-02    0.49       1.0  T
   8    -13.5696683  0.336527E-04  0.777E-02    0.49       1.0  T
   9    -13.5696478  0.204524E-04  0.658E-02    0.49       1.0  T
  10    -13.5696861 -0.382771E-04  0.362E-02    0.49       1.0  T
  11    -13.5697107 -0.245463E-04  0.101E-02    0.49       3.0  T
  12    -13.5697116 -0.972644E-06  0.443E-03    0.49       6.8  T
  13    -13.5697117 -0.580297E-07  0.169E-03    0.49      17.8  T
  14    -13.5697117 -0.416668E-07  0.581E-04    0.49      51.9  T
  15    -13.5697117  0.205316E-08  0.648E-04    0.49      46.5  T
     SCC iter.                  ...        0 min,  0.010 sec
     gradient                   ...        0 min,  0.001 sec
 * total energy  :   -13.2391815 Eh     change       -0.2330479E-01 Eh
   gradient norm :     0.0362500 Eh/α   predicted    -0.2486529E-01 (   6.70%)
   displ. norm   :     0.6661176 α      lambda       -0.1423161E-01
   maximum displ.:     0.2627036 α      in ANC's #8, #1, #6, ...

........................................................................
.............................. CYCLE   20 ..............................
........................................................................
   1    -13.5073051 -0.135073E+02  0.145E+00    0.56       0.0  T
   2    -13.4395466  0.677585E-01  0.211E+00    0.49       1.0  T
   3    -13.4963122 -0.567655E-01  0.113E+00    0.61       1.0  T
   4    -13.4695586  0.267536E-01  0.154E+00    0.47       1.0  T
   5    -13.4929185 -0.233599E-01  0.951E-01    0.60       1.0  T
   6    -13.5107432 -0.178248E-01  0.308E-01    0.54       1.0  T
   7    -13.5116133 -0.870083E-03  0.237E-01    0.55       1.0  T
   8    -13.5117882 -0.174885E-03  0.201E-01    0.54       1.0  T
   9    -13.5120804 -0.292163E-03  0.117E-01    0.54       1.0  T
  10    -13.5122758 -0.195449E-03  0.209E-02    0.53       1.4  T
  11    -13.5122745  0.127122E-05  0.203E-02    0.53       1.5  T
  12    -13.5122757 -0.112392E-05  0.163E-02    0.53       1.9  T
  13    -13.5122797 -0.405092E-05  0.253E-03    0.53      11.9  T
  14    -13.5122798 -0.668347E-07  0.152E-03    0.53      19.9  T
  15    -13.5122798 -0.124624E-07  0.824E-04    0.53      36.6  T
  16    -13.5122798 -0.705956E-08  0.153E-04    0.53     197.5  T
     SCC iter.                  ...        0 min,  0.004 sec
     gradient                   ...        0 min,  0.001 sec
 * total energy  :   -13.2311261 Eh     change        0.8055407E-02 Eh
   gradient norm :     0.1429369 Eh/α   predicted    -0.1027320E-01 (-227.53%)
   displ. norm   :     0.3661701 α      lambda       -0.2767429E-01
   maximum displ.:     0.1755760 α      in ANC's #6, #8, #9, ...
 * RMSD in coord.:     2.0672611 α      energy gain  -0.6991134E+00 Eh

generating ANC from model Hessian ...
Using Lindh-Hessian (1995)
 Shifting diagonal of input Hessian by    1.2175946917330429E-002
 Lowest  eigenvalues of input Hessian
    0.010000    0.011964    0.012028    0.000000    0.000000    0.000000
    0.000000    0.000000    0.000000    0.012201    0.012275    0.012404
    0.012562    0.012839    0.013507    0.013619    0.020344    0.022232
 Highest eigenvalues
    0.754926    0.825198    0.880175    1.060028    1.966881    2.577608


........................................................................
.............................. CYCLE   21 ..............................
........................................................................
   1    -13.5525517 -0.135526E+02  0.122E+00    0.47       0.0  T
   2    -13.5378552  0.146965E-01  0.124E+00    0.58       1.0  T
   3    -13.5280972  0.975805E-02  0.121E+00    0.55       1.0  T
   4    -13.5230413  0.505585E-02  0.136E+00    0.41       1.0  T
   5    -13.5432497 -0.202084E-01  0.763E-01    0.56       1.0  T
   6    -13.5537794 -0.105296E-01  0.329E-01    0.51       1.0  T
   7    -13.5558627 -0.208334E-02  0.886E-02    0.52       1.0  T
   8    -13.5559193 -0.565910E-04  0.637E-02    0.52       1.0  T
   9    -13.5559294 -0.101423E-04  0.494E-02    0.52       1.0  T
  10    -13.5559160  0.133957E-04  0.437E-02    0.52       1.0  T
  11    -13.5559360 -0.200138E-04  0.810E-03    0.52       3.7  T
  12    -13.5559368 -0.733142E-06  0.415E-03    0.52       7.3  T
  13    -13.5559369 -0.133250E-06  0.146E-03    0.52      20.7  T
  14    -13.5559369  0.124059E-07  0.142E-03    0.52      21.2  T
  15    -13.5559369 -0.342450E-07  0.188E-04    0.52     160.1  T
  16    -13.5559369 -0.212326E-09  0.106E-04    0.52     284.3  T
     SCC iter.                  ...        0 min,  0.005 sec
     gradient                   ...        0 min,  0.002 sec
 * total energy  :   -13.2456288 Eh     change       -0.1450271E-01 Eh
   gradient norm :     0.0343915 Eh/α   predicted     0.0000000E+00 (-100.00%)
   displ. norm   :     0.5004484 α      lambda       -0.7970003E-02
   maximum displ.:     0.3962291 α      in ANC's #10, #9, #11, ...

........................................................................
.............................. CYCLE   22 ..............................
........................................................................
   1    -13.5532327 -0.135532E+02  0.129E+00    0.50       0.0  T
   2    -13.4800761  0.731565E-01  0.219E+00    0.79       1.0  T
   3    -13.5548044 -0.747283E-01  0.812E-01    0.49       1.0  T
   4    -13.5238891  0.309153E-01  0.123E+00    0.56       1.0  T
   5    -13.5520670 -0.281779E-01  0.622E-01    0.55       1.0  T
   6    -13.5603643 -0.829724E-02  0.194E-01    0.51       1.0  T
   7    -13.5606973 -0.333000E-03  0.108E-01    0.52       1.0  T
   8    -13.5607460 -0.487391E-04  0.105E-01    0.53       1.0  T
   9    -13.5607625 -0.165097E-04  0.771E-02    0.53       1.0  T
  10    -13.5608492 -0.867164E-04  0.239E-02    0.52       1.3  T
  11    -13.5608561 -0.685067E-05  0.148E-02    0.52       2.0  T
  12    -13.5608585 -0.242516E-05  0.617E-03    0.52       4.9  T
  13    -13.5608590 -0.481784E-06  0.211E-03    0.52      14.3  T
  14    -13.5608591 -0.721040E-07  0.122E-03    0.52      24.7  T
  15    -13.5608591 -0.247539E-07  0.302E-04    0.52      99.8  T
  16    -13.5608591 -0.112068E-08  0.127E-04    0.52     236.9  T
     SCC iter.                  ...        0 min,  0.006 sec
     gradient                   ...        0 min,  0.001 sec
 * total energy  :   -13.2487155 Eh     change       -0.3086721E-02 Eh
   gradient norm :     0.0417489 Eh/α   predicted    -0.4983022E-02 (  61.43%)
   displ. norm   :     0.4566527 α      lambda       -0.7969343E-02
   maximum displ.:     0.2388043 α      in ANC's #13, #8, #9, ...

........................................................................
.............................. CYCLE   23 ..............................
........................................................................
   1    -13.5827570 -0.135828E+02  0.136E+00    0.46       0.0  T
   2    -13.2787100  0.304047E+00  0.428E+00    0.44       1.0  T
   3    -13.5693903 -0.290680E+00  0.120E+00    0.59       1.0  T
   4    -13.5796852 -0.102949E-01  0.902E-01    0.39       1.0  T
   5    -13.5858240 -0.613888E-02  0.493E-01    0.43       1.0  T
   6    -13.5870477 -0.122370E-02  0.335E-01    0.44       1.0  T
   7    -13.5879327 -0.885017E-03  0.277E-01    0.46       1.0  T
   8    -13.5884756 -0.542879E-03  0.232E-01    0.46       1.0  T
   9    -13.5891214 -0.645745E-03  0.114E-01    0.46       1.0  T
  10    -13.5891810 -0.596667E-04  0.782E-02    0.46       1.0  T
  11    -13.5892334 -0.524018E-04  0.558E-02    0.45       1.0  T
  12    -13.5892533 -0.198434E-04  0.378E-02    0.45       1.0  T
  13    -13.5892607 -0.744458E-05  0.101E-02    0.45       3.0  T
  14    -13.5892609 -0.195290E-06  0.358E-03    0.45       8.4  T
  15    -13.5892609  0.535715E-08  0.381E-03    0.45       7.9  T
  16    -13.5892610 -0.117893E-06  0.411E-04    0.45      73.4  T
  17    -13.5892610  0.533836E-08  0.856E-04    0.45      35.2  T
     SCC iter.                  ...        0 min,  0.013 sec
     gradient                   ...        0 min,  0.001 sec
 * total energy  :   -13.2515245 Eh     change       -0.2808947E-02 Eh
   gradient norm :     0.0362105 Eh/α   predicted    -0.4815604E-02 (  71.44%)
   displ. norm   :     0.2737128 α      lambda       -0.2976258E-02
   maximum displ.:     0.1332695 α      in ANC's #8, #3, #12, ...

........................................................................
.............................. CYCLE   24 ..............................
........................................................................
   1    -13.5771909 -0.135772E+02  0.635E-01    0.46       0.0  T
   2    -13.3555608  0.221630E+00  0.358E+00    0.39       1.0  T
   3    -13.5777639 -0.222203E+00  0.440E-01    0.48       1.0  T
   4    -13.5764490  0.131497E-02  0.471E-01    0.41       1.0  T
   5    -13.5766127 -0.163709E-03  0.403E-01    0.42       1.0  T
   6    -13.5801998 -0.358717E-02  0.925E-02    0.44       1.0  T
   7    -13.5801730  0.268869E-04  0.724E-02    0.45       1.0  T
   8    -13.5802163 -0.433742E-04  0.502E-02    0.45       1.0  T
   9    -13.5802205 -0.419243E-05  0.424E-02    0.44       1.0  T
  10    -13.5802452 -0.247184E-04  0.185E-02    0.44       1.6  T
  11    -13.5802493 -0.402709E-05  0.747E-03    0.44       4.0  T
  12    -13.5802490  0.286904E-06  0.745E-03    0.44       4.0  T
  13    -13.5802495 -0.561694E-06  0.421E-03    0.44       7.2  T
  14    -13.5802497 -0.124991E-06  0.186E-03    0.44      16.2  T
  15    -13.5802497 -0.203835E-07  0.511E-04    0.44      59.0  T
  16    -13.5802497 -0.277729E-08  0.192E-04    0.44     157.2  T
     SCC iter.                  ...        0 min,  0.021 sec
     gradient                   ...        0 min,  0.001 sec
 * total energy  :   -13.2536458 Eh     change       -0.2121322E-02 Eh
   gradient norm :     0.0194797 Eh/α   predicted    -0.1599613E-02 ( -24.59%)
   displ. norm   :     0.4846268 α      lambda       -0.3173968E-02
   maximum displ.:     0.2168322 α      in ANC's #6, #8, #9, ...

........................................................................
.............................. CYCLE   25 ..............................
........................................................................
   1    -13.5727074 -0.135727E+02  0.713E-01    0.43       0.0  T
   2    -13.5476939  0.250136E-01  0.136E+00    0.57       1.0  T
   3    -13.5732520 -0.255581E-01  0.456E-01    0.42       1.0  T
   4    -13.5646973  0.855460E-02  0.714E-01    0.50       1.0  T
   5    -13.5721810 -0.748362E-02  0.278E-01    0.46       1.0  T
   6    -13.5741969 -0.201592E-02  0.906E-02    0.44       1.0  T
   7    -13.5742519 -0.549758E-04  0.635E-02    0.44       1.0  T
   8    -13.5742882 -0.363491E-04  0.530E-02    0.45       1.0  T
   9    -13.5743152 -0.269428E-04  0.205E-02    0.45       1.5  T
  10    -13.5743232 -0.802737E-05  0.486E-03    0.44       6.2  T
  11    -13.5743233 -0.115343E-06  0.375E-03    0.44       8.0  T
  12    -13.5743234 -0.872574E-07  0.211E-03    0.44      14.3  T
  13    -13.5743235 -0.692625E-07  0.398E-04    0.44      75.8  T
  14    -13.5743235 -0.229498E-09  0.312E-04    0.44      96.5  T
     SCC iter.                  ...        0 min,  0.004 sec
     gradient                   ...        0 min,  0.001 sec
 * total energy  :   -13.2557403 Eh     change       -0.2094522E-02 Eh
   gradient norm :     0.0224490 Eh/α   predicted    -0.1959705E-02 (  -6.44%)
   displ. norm   :     0.5454668 α      lambda       -0.2471420E-02
   maximum displ.:     0.2654723 α      in ANC's #6, #8, #9, ...

........................................................................
.............................. CYCLE   26 ..............................
........................................................................
   1    -13.5733345 -0.135733E+02  0.891E-01    0.44       0.0  T
   2    -13.3933919  0.179943E+00  0.328E+00    0.36       1.0  T
   3    -13.5640160 -0.170624E+00  0.916E-01    0.53       1.0  T
   4    -13.5723009 -0.828490E-02  0.517E-01    0.38       1.0  T
   5    -13.5705326  0.176824E-02  0.515E-01    0.40       1.0  T
   6    -13.5756399 -0.510730E-02  0.114E-01    0.42       1.0  T
   7    -13.5751694  0.470540E-03  0.183E-01    0.42       1.0  T
   8    -13.5754776 -0.308232E-03  0.136E-01    0.43       1.0  T
   9    -13.5756108 -0.133164E-03  0.871E-02    0.42       1.0  T
  10    -13.5757256 -0.114845E-03  0.209E-02    0.42       1.4  T
  11    -13.5757258 -0.148104E-06  0.202E-02    0.42       1.5  T
  12    -13.5757268 -0.980747E-06  0.815E-03    0.42       3.7  T
  13    -13.5757271 -0.315594E-06  0.308E-03    0.42       9.8  T
  14    -13.5757272 -0.148017E-06  0.112E-03    0.42      26.8  T
  15    -13.5757272  0.153389E-07  0.135E-03    0.42      22.4  T
  16    -13.5757272 -0.218001E-07  0.802E-05    0.42     376.1  T
  17    -13.5757272  0.289759E-10  0.724E-05    0.42     416.5  T
     SCC iter.                  ...        0 min,  0.005 sec
     gradient                   ...        0 min,  0.001 sec
 * total energy  :   -13.2575857 Eh     change       -0.1845402E-02 Eh
   gradient norm :     0.0253541 Eh/α   predicted    -0.1603391E-02 ( -13.11%)
   displ. norm   :     0.5608518 α      lambda       -0.2865449E-02
   maximum displ.:     0.3369670 α      in ANC's #6, #5, #1, ...

........................................................................
.............................. CYCLE   27 ..............................
........................................................................
   1    -13.5844755 -0.135845E+02  0.907E-01    0.42       0.0  T
   2    -13.4559854  0.128490E+00  0.284E+00    0.34       1.0  T
   3    -13.5718620 -0.115877E+00  0.106E+00    0.54       1.0  T
   4    -13.5837961 -0.119341E-01  0.494E-01    0.38       1.0  T
   5    -13.5799262  0.386994E-02  0.603E-01    0.38       1.0  T
   6    -13.5857318 -0.580567E-02  0.180E-01    0.41       1.0  T
   7    -13.5859426 -0.210727E-03  0.175E-01    0.41       1.0  T
   8    -13.5861896 -0.247065E-03  0.129E-01    0.41       1.0  T
   9    -13.5863360 -0.146352E-03  0.561E-02    0.40       1.0  T
  10    -13.5863835 -0.475583E-04  0.164E-02    0.40       1.8  T
  11    -13.5863848 -0.123652E-05  0.117E-02    0.40       2.6  T
  12    -13.5863823  0.245055E-05  0.136E-02    0.40       2.2  T
  13    -13.5863858 -0.343508E-05  0.107E-03    0.40      28.3  T
  14    -13.5863858 -0.214267E-08  0.793E-04    0.40      38.0  T
  15    -13.5863858  0.111127E-07  0.934E-04    0.40      32.3  T
     SCC iter.                  ...        0 min,  0.004 sec
     gradient                   ...        0 min,  0.000 sec
 * total energy  :   -13.2597693 Eh     change       -0.2183603E-02 Eh
   gradient norm :     0.0224497 Eh/α   predicted    -0.1883390E-02 ( -13.75%)
   displ. norm   :     0.5892287 α      lambda       -0.3403368E-02
   maximum displ.:     0.3971621 α      in ANC's #6, #9, #5, ...

........................................................................
.............................. CYCLE   28 ..............................
........................................................................
   1    -13.6055788 -0.136056E+02  0.743E-01    0.41       0.0  T
   2    -13.6012681  0.431071E-02  0.795E-01    0.45       1.0  T
   3    -13.6042476 -0.297953E-02  0.503E-01    0.41       1.0  T
   4    -13.5964104  0.783726E-02  0.700E-01    0.37       1.0  T
   5    -13.6024086 -0.599820E-02  0.570E-01    0.49       1.0  T
   6    -13.6065129 -0.410435E-02  0.551E-02    0.43       1.0  T
   7    -13.6064706  0.423427E-04  0.664E-02    0.43       1.0  T
   8    -13.6064533  0.172848E-04  0.629E-02    0.43       1.0  T
   9    -13.6065191 -0.657786E-04  0.334E-02    0.43       1.0  T
  10    -13.6065359 -0.168386E-04  0.100E-02    0.42       3.0  T
  11    -13.6065368 -0.848036E-06  0.594E-03    0.42       5.1  T
  12    -13.6065369 -0.171509E-06  0.311E-03    0.42       9.7  T
  13    -13.6065370 -0.884438E-07  0.569E-04    0.42      53.0  T
  14    -13.6065370 -0.194387E-08  0.210E-04    0.42     143.8  T
     SCC iter.                  ...        0 min,  0.003 sec
     gradient                   ...        0 min,  0.001 sec
 * total energy  :   -13.2619461 Eh     change       -0.2176790E-02 Eh
   gradient norm :     0.0420231 Eh/α   predicted    -0.2292483E-02 (   5.31%)
   displ. norm   :     0.6047020 α      lambda       -0.4119118E-02
   maximum displ.:     0.3353954 α      in ANC's #6, #9, #11, ...

........................................................................
.............................. CYCLE   29 ..............................
........................................................................
   1    -13.6165231 -0.136165E+02  0.757E-01    0.44       0.0  T
   2    -13.6027813  0.137419E-01  0.110E+00    0.62       1.0  T
   3    -13.6096982 -0.691688E-02  0.824E-01    0.40       1.0  T
   4    -13.6055524  0.414581E-02  0.923E-01    0.54       1.0  T
   5    -13.6166398 -0.110874E-01  0.250E-01    0.45       1.0  T
   6    -13.6176960 -0.105624E-02  0.147E-01    0.48       1.0  T
   7    -13.6178310 -0.135027E-03  0.105E-01    0.48       1.0  T
   8    -13.6178555 -0.244130E-04  0.933E-02    0.47       1.0  T
   9    -13.6179493 -0.938204E-04  0.342E-02    0.46       1.0  T
  10    -13.6179635 -0.142398E-04  0.204E-02    0.46       1.5  T
  11    -13.6179670 -0.348885E-05  0.134E-02    0.46       2.2  T
  12    -13.6179687 -0.173939E-05  0.371E-03    0.47       8.1  T
  13    -13.6179689 -0.114810E-06  0.113E-03    0.47      26.8  T
  14    -13.6179689 -0.955748E-08  0.527E-04    0.47      57.2  T
  15    -13.6179689 -0.164339E-08  0.185E-04    0.47     162.6  T
     SCC iter.                  ...        0 min,  0.003 sec
     gradient                   ...        0 min,  0.001 sec
 * total energy  :   -13.2662971 Eh     change       -0.4350959E-02 Eh
   gradient norm :     0.0394706 Eh/α   predicted    -0.2812671E-02 ( -35.36%)
   displ. norm   :     0.6366294 α      lambda       -0.7046993E-02
   maximum displ.:     0.3470886 α      in ANC's #6, #9, #8, ...

........................................................................
.............................. CYCLE   30 ..............................
........................................................................
   1    -13.6163853 -0.136164E+02  0.879E-01    0.58       0.0  T
   2    -13.6022718  0.141135E-01  0.124E+00    0.75       1.0  T
   3    -13.6157501 -0.134783E-01  0.548E-01    0.55       1.0  T
   4    -13.6044442  0.113058E-01  0.911E-01    0.72       1.0  T
   5    -13.6164510 -0.120067E-01  0.377E-01    0.69       1.0  T
   6    -13.6194086 -0.295760E-02  0.157E-01    0.62       1.0  T
   7    -13.6196109 -0.202323E-03  0.981E-02    0.63       1.0  T
   8    -13.6196661 -0.551597E-04  0.646E-02    0.62       1.0  T
   9    -13.6197042 -0.381039E-04  0.335E-02    0.62       1.0  T
  10    -13.6197287 -0.245000E-04  0.123E-02    0.62       2.5  T
  11    -13.6197296 -0.942244E-06  0.891E-03    0.62       3.4  T
  12    -13.6197299 -0.338207E-06  0.467E-03    0.62       6.5  T
  13    -13.6197302 -0.224361E-06  0.650E-04    0.62      46.4  T
  14    -13.6197302 -0.319996E-08  0.242E-04    0.62     124.8  T
     SCC iter.                  ...        0 min,  0.005 sec
     gradient                   ...        0 min,  0.001 sec
 * total energy  :   -13.2748989 Eh     change       -0.8601810E-02 Eh
   gradient norm :     0.0686513 Eh/α   predicted    -0.4951556E-02 ( -42.44%)
   displ. norm   :     0.5926857 α      lambda       -0.1525390E-01
   maximum displ.:     0.3541735 α      in ANC's #8, #9, #7, ...

........................................................................
.............................. CYCLE   31 ..............................
........................................................................
   1    -13.6311681 -0.136312E+02  0.123E+00    0.71       0.0  T
   2    -13.6221136  0.905453E-02  0.117E+00    0.90       1.0  T
   3    -13.6324756 -0.103620E-01  0.620E-01    0.64       1.0  T
   4    -13.6278955  0.458011E-02  0.768E-01    0.85       1.0  T
   5    -13.6352011 -0.730559E-02  0.372E-01    0.79       1.0  T
   6    -13.6369308 -0.172969E-02  0.254E-01    0.75       1.0  T
   7    -13.6374235 -0.492766E-03  0.147E-01    0.75       1.0  T
   8    -13.6377164 -0.292812E-03  0.741E-02    0.75       1.0  T
   9    -13.6377702 -0.538945E-04  0.380E-02    0.75       1.0  T
  10    -13.6377956 -0.253360E-04  0.930E-03    0.75       3.2  T
  11    -13.6377960 -0.408003E-06  0.559E-03    0.75       5.4  T
  12    -13.6377962 -0.159609E-06  0.223E-03    0.75      13.5  T
  13    -13.6377962 -0.450995E-07  0.762E-04    0.75      39.6  T
  14    -13.6377962 -0.514584E-08  0.346E-04    0.75      87.1  T
     SCC iter.                  ...        0 min,  0.007 sec
     gradient                   ...        0 min,  0.001 sec
 * total energy  :   -13.2940161 Eh     change       -0.1911718E-01 Eh
   gradient norm :     0.0992763 Eh/α   predicted    -0.1030614E-01 ( -46.09%)
   displ. norm   :     0.6272183 α      lambda       -0.3355812E-01
   maximum displ.:     0.2625434 α      in ANC's #7, #12, #8, ...

........................................................................
.............................. CYCLE   32 ..............................
........................................................................
   1    -13.6505558 -0.136506E+02  0.161E+00    0.69       0.0  T
   2    -13.6509834 -0.427542E-03  0.107E+00    0.67       1.0  T
   3    -13.6285826  0.224008E-01  0.129E+00    0.61       1.0  T
   4    -13.6262634  0.231925E-02  0.135E+00    0.75       1.0  T
   5    -13.6539288 -0.276655E-01  0.405E-01    0.69       1.0  T
   6    -13.6525549  0.137393E-02  0.405E-01    0.68       1.0  T
   7    -13.6552016 -0.264670E-02  0.188E-01    0.65       1.0  T
   8    -13.6554968 -0.295164E-03  0.119E-01    0.68       1.0  T
   9    -13.6556049 -0.108144E-03  0.691E-02    0.67       1.0  T
  10    -13.6556838 -0.789231E-04  0.871E-03    0.66       3.5  T
  11    -13.6556843 -0.437002E-06  0.397E-03    0.66       7.6  T
  12    -13.6556843 -0.481551E-07  0.295E-03    0.66      10.2  T
  13    -13.6556844 -0.346718E-07  0.119E-03    0.66      25.3  T
  14    -13.6556844 -0.104658E-07  0.183E-04    0.66     165.0  T
  15    -13.6556844 -0.260163E-09  0.312E-05    0.66     965.7  T
     SCC iter.                  ...        0 min,  0.005 sec
     gradient                   ...        0 min,  0.002 sec
 * total energy  :   -13.3346739 Eh     change       -0.4065787E-01 Eh
   gradient norm :     0.1251735 Eh/α   predicted    -0.2337997E-01 ( -42.50%)
   displ. norm   :     0.6761028 α      lambda       -0.5765912E-01
   maximum displ.:     0.4498658 α      in ANC's #12, #8, #10, ...

........................................................................
.............................. CYCLE   33 ..............................
........................................................................
   1    -13.7024890 -0.137025E+02  0.119E+00    0.61       0.0  T
   2    -13.7022405  0.248530E-03  0.783E-01    0.69       1.0  T
   3    -13.6824696  0.197709E-01  0.979E-01    0.54       1.0  T
   4    -13.6907599 -0.829030E-02  0.776E-01    0.57       1.0  T
   5    -13.7029172 -0.121572E-01  0.180E-01    0.66       1.0  T
   6    -13.7029807 -0.635249E-04  0.113E-01    0.67       1.0  T
   7    -13.7030506 -0.698847E-04  0.974E-02    0.65       1.0  T
   8    -13.7031333 -0.826818E-04  0.493E-02    0.66       1.0  T
   9    -13.7031469 -0.136743E-04  0.146E-02    0.65       2.1  T
  10    -13.7031489 -0.196336E-05  0.691E-03    0.65       4.4  T
  11    -13.7031490 -0.742626E-07  0.334E-03    0.65       9.0  T
  12    -13.7031490 -0.145773E-08  0.146E-03    0.65      20.7  T
  13    -13.7031490 -0.148570E-07  0.913E-04    0.65      33.0  T
  14    -13.7031490 -0.122663E-07  0.302E-04    0.65      99.9  T
     SCC iter.                  ...        0 min,  0.003 sec
     gradient                   ...        0 min,  0.001 sec
 * total energy  :   -13.3653434 Eh     change       -0.3066942E-01 Eh
   gradient norm :     0.1260786 Eh/α   predicted    -0.4200801E-01 (  36.97%)
   displ. norm   :     0.4870927 α      lambda       -0.3895599E-01
   maximum displ.:     0.2626890 α      in ANC's #12, #6, #8, ...

........................................................................
.............................. CYCLE   34 ..............................
........................................................................
   1    -13.6948947 -0.136949E+02  0.873E-01    0.61       0.0  T
   2    -13.6938462  0.104851E-02  0.650E-01    0.71       1.0  T
   3    -13.6882747  0.557152E-02  0.752E-01    0.54       1.0  T
   4    -13.6893771 -0.110239E-02  0.685E-01    0.60       1.0  T
   5    -13.6953480 -0.597090E-02  0.158E-01    0.66       1.0  T
   6    -13.6952514  0.966163E-04  0.149E-01    0.63       1.0  T
   7    -13.6956401 -0.388729E-03  0.764E-02    0.63       1.0  T
   8    -13.6957524 -0.112343E-03  0.182E-02    0.64       1.7  T
   9    -13.6957530 -0.574066E-06  0.997E-03    0.64       3.0  T
  10    -13.6957527  0.281725E-06  0.771E-03    0.64       3.9  T
  11    -13.6957540 -0.124901E-05  0.176E-03    0.64      17.1  T
  12    -13.6957540 -0.312115E-07  0.780E-04    0.64      38.6  T
  13    -13.6957540 -0.531319E-08  0.234E-04    0.64     128.8  T
     SCC iter.                  ...        0 min,  0.002 sec
     gradient                   ...        0 min,  0.001 sec
 * total energy  :   -13.3713341 Eh     change       -0.5990714E-02 Eh
   gradient norm :     0.0862410 Eh/α   predicted    -0.2409932E-01 ( 302.28%)
   displ. norm   :     0.3808444 α      lambda       -0.1425146E-01
   maximum displ.:     0.1930567 α      in ANC's #1, #2, #9, ...

........................................................................
.............................. CYCLE   35 ..............................
........................................................................
   1    -13.7107924 -0.137108E+02  0.751E-01    0.59       0.0  T
   2    -13.7073738  0.341863E-02  0.788E-01    0.38       1.0  T
   3    -13.7108612 -0.348740E-02  0.481E-01    0.56       1.0  T
   4    -13.7079993  0.286182E-02  0.495E-01    0.56       1.0  T
   5    -13.7115966 -0.359725E-02  0.156E-01    0.52       1.0  T
   6    -13.7119195 -0.322927E-03  0.672E-02    0.51       1.0  T
   7    -13.7118674  0.521164E-04  0.770E-02    0.51       1.0  T
   8    -13.7119583 -0.908767E-04  0.208E-02    0.51       1.4  T
   9    -13.7119611 -0.281243E-05  0.127E-02    0.51       2.4  T
  10    -13.7119634 -0.235876E-05  0.417E-03    0.51       7.2  T
  11    -13.7119636 -0.125077E-06  0.136E-03    0.51      22.2  T
  12    -13.7119636 -0.820690E-08  0.698E-04    0.51      43.2  T
  13    -13.7119636 -0.188835E-08  0.249E-04    0.51     121.2  T
     SCC iter.                  ...        0 min,  0.004 sec
     gradient                   ...        0 min,  0.000 sec
 * total energy  :   -13.3785723 Eh     change       -0.7238189E-02 Eh
   gradient norm :     0.0663436 Eh/α   predicted    -0.8159262E-02 (  12.73%)
   displ. norm   :     0.5668378 α      lambda       -0.2321883E-01
   maximum displ.:     0.2451065 α      in ANC's #10, #7, #17, ...

........................................................................
.............................. CYCLE   36 ..............................
........................................................................
   1    -13.6981135 -0.136981E+02  0.133E+00    0.48       0.0  T
   2    -13.6977115  0.402081E-03  0.784E-01    0.52       1.0  T
   3    -13.6670256  0.306858E-01  0.145E+00    0.45       1.0  T
   4    -13.6969997 -0.299741E-01  0.280E-01    0.46       1.0  T
   5    -13.6965197  0.479951E-03  0.317E-01    0.52       1.0  T
   6    -13.6979493 -0.142958E-02  0.187E-01    0.50       1.0  T
   7    -13.6980122 -0.629290E-04  0.131E-01    0.50       1.0  T
   8    -13.6982693 -0.257043E-03  0.669E-02    0.50       1.0  T
   9    -13.6983121 -0.428629E-04  0.221E-02    0.50       1.4  T
  10    -13.6983152 -0.312195E-05  0.141E-02    0.50       2.1  T
  11    -13.6983174 -0.213865E-05  0.404E-03    0.50       7.5  T
  12    -13.6983175 -0.981518E-07  0.213E-03    0.50      14.2  T
  13    -13.6983176 -0.751561E-07  0.597E-04    0.50      50.5  T
  14    -13.6983176 -0.504957E-08  0.224E-04    0.50     134.7  T
     SCC iter.                  ...        0 min,  0.002 sec
     gradient                   ...        0 min,  0.001 sec
 * total energy  :   -13.3545521 Eh     change        0.2402014E-01 Eh
   gradient norm :     0.2536768 Eh/α   predicted    -0.1533958E-01 (-163.86%)
   displ. norm   :     0.2876516 α      lambda       -0.6523839E-01
   maximum displ.:     0.1091982 α      in ANC's #10, #17, #18, ...

........................................................................
.............................. CYCLE   37 ..............................
........................................................................
   1    -13.7099599 -0.137100E+02  0.720E-01    0.49       0.0  T
   2    -13.7065057  0.345419E-02  0.703E-01    0.70       1.0  T
   3    -13.7085722 -0.206649E-02  0.445E-01    0.53       1.0  T
   4    -13.6974458  0.111264E-01  0.974E-01    0.50       1.0  T
   5    -13.7111033 -0.136575E-01  0.169E-01    0.57       1.0  T
   6    -13.7112286 -0.125311E-03  0.113E-01    0.56       1.0  T
   7    -13.7114255 -0.196937E-03  0.669E-02    0.57       1.0  T
   8    -13.7114620 -0.364821E-04  0.266E-02    0.57       1.1  T
   9    -13.7114679 -0.590576E-05  0.826E-03    0.57       3.6  T
  10    -13.7114677  0.157490E-06  0.798E-03    0.57       3.8  T
  11    -13.7114686 -0.835939E-06  0.208E-03    0.57      14.5  T
  12    -13.7114686 -0.613295E-07  0.593E-04    0.57      50.8  T
  13    -13.7114686 -0.675783E-09  0.375E-04    0.57      80.4  T
     SCC iter.                  ...        0 min,  0.003 sec
     gradient                   ...        0 min,  0.001 sec
 * total energy  :   -13.3825098 Eh     change       -0.2795768E-01 Eh
   gradient norm :     0.0497807 Eh/α   predicted    -0.3531822E-01 (  26.33%)
   displ. norm   :     0.5231016 α      lambda       -0.6278249E-02
   maximum displ.:     0.3271761 α      in ANC's #6, #7, #5, ...

........................................................................
.............................. CYCLE   38 ..............................
........................................................................
   1    -13.7412831 -0.137413E+02  0.792E-01    0.56       0.0  T
   2    -13.7369255  0.435754E-02  0.806E-01    0.43       1.0  T
   3    -13.7347968  0.212875E-02  0.764E-01    0.56       1.0  T
   4    -13.7306989  0.409783E-02  0.726E-01    0.57       1.0  T
   5    -13.7413449 -0.106460E-01  0.197E-01    0.54       1.0  T
   6    -13.7420190 -0.674075E-03  0.539E-02    0.52       1.0  T
   7    -13.7420232 -0.425450E-05  0.509E-02    0.52       1.0  T
   8    -13.7420141  0.916731E-05  0.405E-02    0.52       1.0  T
   9    -13.7420389 -0.248682E-04  0.503E-03    0.52       6.0  T
  10    -13.7420390 -0.519281E-07  0.307E-03    0.52       9.8  T
  11    -13.7420390 -0.445587E-07  0.147E-03    0.52      20.5  T
  12    -13.7420391 -0.177834E-07  0.867E-04    0.52      34.8  T
  13    -13.7420391 -0.688392E-09  0.443E-04    0.52      68.1  T
     SCC iter.                  ...        0 min,  0.002 sec
     gradient                   ...        0 min,  0.001 sec
 * total energy  :   -13.3787428 Eh     change        0.3766957E-02 Eh
   gradient norm :     0.0833351 Eh/α   predicted    -0.3998107E-02 (-206.14%)
   displ. norm   :     0.3018157 α      lambda       -0.1172408E-01
   maximum displ.:     0.1248405 α      in ANC's #6, #8, #2, ...

........................................................................
.............................. CYCLE   39 ..............................
........................................................................
   1    -13.7132668 -0.137133E+02  0.494E-01    0.49       0.0  T
   2    -13.7080485  0.521825E-02  0.823E-01    0.30       1.0  T
   3    -13.7141076 -0.605902E-02  0.339E-01    0.38       1.0  T
   4    -13.7023861  0.117215E-01  0.838E-01    0.46       1.0  T
   5    -13.7141800 -0.117939E-01  0.147E-01    0.39       1.0  T
   6    -13.7140502  0.129750E-03  0.142E-01    0.41       1.0  T
   7    -13.7143513 -0.301052E-03  0.677E-02    0.41       1.0  T
   8    -13.7143923 -0.410194E-04  0.425E-02    0.41       1.0  T
   9    -13.7144102 -0.179270E-04  0.103E-02    0.41       2.9  T
  10    -13.7144112 -0.987176E-06  0.452E-03    0.41       6.7  T
  11    -13.7144113 -0.341057E-07  0.205E-03    0.41      14.7  T
  12    -13.7144113 -0.452561E-07  0.724E-04    0.41      41.6  T
  13    -13.7144113 -0.313323E-08  0.203E-04    0.41     148.7  T
     SCC iter.                  ...        0 min,  0.002 sec
     gradient                   ...        0 min,  0.000 sec
[...]
   gradient norm :     0.0010948 Eh/α   predicted    -0.4453891E-05 ( -50.46%)
   displ. norm   :     0.0491316 α      lambda       -0.6313997E-05
   maximum displ.:     0.0247689 α      in ANC's #5, #1, #4, ...

........................................................................
.............................. CYCLE   58 ..............................
........................................................................
   1    -13.7167834 -0.137168E+02  0.126E-01    0.35       0.0  T
   2    -13.7167531  0.302951E-04  0.939E-02    0.34       1.0  T
   3    -13.7163780  0.375167E-03  0.210E-01    0.37       1.0  T
   4    -13.7167239 -0.345955E-03  0.533E-02    0.34       1.0  T
   5    -13.7167857 -0.617925E-04  0.118E-02    0.34       2.6  T
   6    -13.7167849  0.798277E-06  0.881E-03    0.34       3.4  T
   7    -13.7167836  0.134747E-05  0.154E-02    0.34       2.0  T
   8    -13.7167862 -0.269153E-05  0.342E-03    0.34       8.8  T
   9    -13.7167863 -0.865592E-07  0.130E-03    0.34      23.1  T
  10    -13.7167863 -0.821933E-08  0.910E-04    0.34      33.1  T
  11    -13.7167863 -0.101356E-07  0.104E-04    0.34     290.9  T
     SCC iter.                  ...        0 min,  0.002 sec
     gradient                   ...        0 min,  0.000 sec
 * total energy  :   -13.3868904 Eh     change       -0.6576409E-05 Eh
   gradient norm :     0.0011711 Eh/α   predicted    -0.3159115E-05 ( -51.96%)
   displ. norm   :     0.0580746 α      lambda       -0.4996563E-05
   maximum displ.:     0.0293182 α      in ANC's #5, #6, #4, ...

........................................................................
.............................. CYCLE   59 ..............................
........................................................................
   1    -13.7166409 -0.137166E+02  0.137E-01    0.34       0.0  T
   2    -13.7166267  0.142280E-04  0.845E-02    0.33       1.0  T
   3    -13.7161401  0.486533E-03  0.200E-01    0.35       1.0  T
   4    -13.7165990 -0.458858E-03  0.502E-02    0.33       1.0  T
   5    -13.7166417 -0.427042E-04  0.156E-02    0.34       1.9  T
   6    -13.7166389  0.281979E-05  0.215E-02    0.33       1.4  T
   7    -13.7166422 -0.327556E-05  0.120E-02    0.33       2.5  T
   8    -13.7166433 -0.118911E-05  0.294E-03    0.33      10.3  T
   9    -13.7166434 -0.739416E-07  0.149E-03    0.34      20.3  T
  10    -13.7166434 -0.145473E-07  0.967E-04    0.33      31.2  T
  11    -13.7166434 -0.941069E-08  0.143E-04    0.33     210.8  T
     SCC iter.                  ...        0 min,  0.002 sec
     gradient                   ...        0 min,  0.001 sec
 * total energy  :   -13.3868954 Eh     change       -0.4957299E-05 Eh
   gradient norm :     0.0007777 Eh/α   predicted    -0.2500397E-05 ( -49.56%)
   displ. norm   :     0.0456508 α      lambda       -0.2670240E-05
   maximum displ.:     0.0270445 α      in ANC's #4, #5, #1, ...

   *** GEOMETRY OPTIMIZATION CONVERGED AFTER 59 ITERATIONS ***

------------------------------------------------------------------------
 total energy gain   :        -0.8548826 Eh     -536.4469 kcal/mol
 total RMSD          :         2.7752334 a0        1.4686 Å
 total power (kW/mol):       -38.0422707 (step)-7452.9505 (real)
------------------------------------------------------------------------

 ANCopt (total)                0 d,  0 h,  0 min,  0.301 sec
 optimizer setup                ...        0 min,  0.000 sec (  0.016%)
 model hessian                  ...        0 min,  0.001 sec (  0.169%)
 ANC generation                 ...        0 min,  0.000 sec (  0.108%)
 coordinate transformation      ...        0 min,  0.000 sec (  0.061%)
 single point calculation       ...        0 min,  0.294 sec ( 97.770%)
 optimization log               ...        0 min,  0.002 sec (  0.593%)
 hessian update                 ...        0 min,  0.002 sec (  0.599%)
 rational function              ...        0 min,  0.001 sec (  0.362%)

================
 final structure:
================
11
 xtb: 6.5.1 (conda-forge)
Be           0.71394230186623        0.05686011254670       -0.79414625387064
B            1.71828659537625        0.73409452843949        0.44498016670818
B            0.20613149337808        0.11407848608447        0.79381087801714
C            1.33308787226684        0.44406354169404        1.82334471698958
C            1.50524358094667        0.38568397027619        3.13037897749820
C            1.59331908300842        0.40677034720795        4.37996719599498
C            1.73009259669558        0.41665169416926        5.69295405436143
H            1.01633936539633       -0.07396816173104        6.33809532522310
H            2.56191688141191        0.90857578842774        6.17544974471706
H            0.10503717590214        1.06143123893903        8.73131590019288
H           -0.16339694624596        0.56175845394951        9.26384929417219

 Bond Distances (Angstroems)
 ---------------------------
Be1-B2=1.7329        Be1-B3=1.6682        B2-Be1=1.7329        B2-B3=1.6711         B2-C4=1.4603         B3-Be1=1.6682        
B3-B2=1.6711         B3-C4=1.5617         C4-B2=1.4603         C4-B3=1.5617         C4-C5=1.3196         C5-C4=1.3196         
C5-C6=1.2529         C6-C5=1.2529         C6-C7=1.3201         C7-C6=1.3201         C7-H8=1.0800         C7-H9=1.0801         
H8-C7=1.0800         H9-C7=1.0801         H10-H11=0.7780       H11-H10=0.7780       
 H  H  Rav=0.7780 sigma=0.0000  Rmin=0.7780  Rmax=0.7780     1
 B  Be Rav=1.7005 sigma=0.0323  Rmin=1.6682  Rmax=1.7329     2
 B  B  Rav=1.6711 sigma=0.0000  Rmin=1.6711  Rmax=1.6711     1
 C  H  Rav=1.0801 sigma=0.0001  Rmin=1.0800  Rmax=1.0801     2
 C  B  Rav=1.5110 sigma=0.0507  Rmin=1.4603  Rmax=1.5617     2
 C  C  Rav=1.2975 sigma=0.0316  Rmin=1.2529  Rmax=1.3201     3

 selected bond angles (degree)
 --------------------
B3-Be1-B2= 58.82               B3-B2-Be1= 58.66               C4-B2-Be1=116.39               C4-B2-B3= 59.38                
B2-B3-Be1= 62.52               C4-B3-Be1=114.53               C4-B3-B2= 53.58                B3-C4-B2= 67.05                
C5-C4-B2=155.41                C5-C4-B3=137.54                C6-C5-C4=175.07                C7-C6-C5=178.01                
H8-C7-C6=121.48                H9-C7-C6=121.83                H9-C7-H8=116.68                

 selected dihedral angles (degree)
 ---------------------------------
C4-B2-Be1-B3= 14.52           C4-B3-Be1-B2=346.65           Be1-B3-B2-C4=195.13           C4-B3-B2-Be1=164.87           
B3-C4-B2-Be1=345.59           C5-C4-B2-Be1=166.46           C5-C4-B2-B3=180.87            B2-C4-B3-Be1= 14.75           
C5-C4-B3-Be1=194.21           C5-C4-B3-B2=179.46            C6-C5-C4-B2=112.41            C6-C5-C4-B3=293.60            
C7-C6-C5-C4=209.64            H8-C7-C6-C5=228.13            H9-C7-C6-C5= 47.73            

 CMA Distance (Angstroems)
 ---------------------------
R(CMA):  3.9009
           -------------------------------------------------
          |                Final Singlepoint                |
           -------------------------------------------------

          ...................................................
          :                      SETUP                      :
          :.................................................:
          :  # basis functions                  32          :
          :  # atomic orbitals                  32          :
          :  # shells                           18          :
          :  # electrons                        28          :
          :  max. iterations                   250          :
          :  Hamiltonian                  GFN2-xTB          :
          :  restarted?                      false          :
          :  GBSA solvation                  false          :
          :  PC potential                    false          :
          :  electronic temp.          300.0000000     K    :
          :  accuracy                    1.0000000          :
          :  -> integral cutoff          0.2500000E+02      :
          :  -> integral neglect         0.1000000E-07      :
          :  -> SCF convergence          0.1000000E-05 Eh   :
          :  -> wf. convergence          0.1000000E-03 e    :
          :  Broyden damping             0.4000000          :
          ...................................................

 iter      E             dE          RMSdq      gap      omega  full diag
   1    -13.7166434 -0.137166E+02  0.708E-05    0.33       0.0  T
   2    -13.7166434  0.362189E-09  0.177E-04    0.33     170.1  T
   3    -13.7166434 -0.374246E-09  0.555E-05    0.33     542.9  T

   *** convergence criteria satisfied after 3 iterations ***

         #    Occupation            Energy/Eh            Energy/eV
      -------------------------------------------------------------
         1        2.0000           -0.5460454             -14.8587
       ...           ...                  ...                  ...
         8        2.0000           -0.3934245             -10.7056
         9        2.0000           -0.3889932             -10.5850
        10        2.0000           -0.3762134             -10.2373
        11        2.0000           -0.3432359              -9.3399
        12        2.0000           -0.3258358              -8.8664
        13        2.0000           -0.2921563              -7.9500
        14        1.9969           -0.2661319              -7.2418 (HOMO)
        15        0.0031           -0.2538226              -6.9069 (LUMO)
        16                         -0.1898715              -5.1667
        17                         -0.1749184              -4.7598
        18                         -0.1538594              -4.1867
        19                         -0.1112133              -3.0263
       ...                                ...                  ...
        32                          1.4925430              40.6142
      -------------------------------------------------------------
                  HL-Gap            0.0123093 Eh            0.3350 eV
             Fermi-level           -0.2599772 Eh           -7.0743 eV

 SCC (total)                   0 d,  0 h,  0 min,  0.001 sec
 SCC setup                      ...        0 min,  0.000 sec (  1.378%)
 Dispersion                     ...        0 min,  0.000 sec (  3.254%)
 classical contributions        ...        0 min,  0.000 sec (  1.876%)
 integral evaluation            ...        0 min,  0.000 sec ( 10.657%)
 iterations                     ...        0 min,  0.000 sec ( 30.495%)
 molecular gradient             ...        0 min,  0.001 sec ( 49.220%)
 printout                       ...        0 min,  0.000 sec (  2.374%)

         :::::::::::::::::::::::::::::::::::::::::::::::::::::
         ::                     SUMMARY                     ::
         :::::::::::::::::::::::::::::::::::::::::::::::::::::
         :: total energy             -13.386895354742 Eh    ::
         :: gradient norm              0.000777898319 Eh/a0 ::
         :: HOMO-LUMO gap              0.334951784323 eV    ::
         ::.................................................::
         :: SCC energy               -13.716643437504 Eh    ::
         :: -> isotropic ES           -0.013202178168 Eh    ::
         :: -> anisotropic ES          0.015124424341 Eh    ::
         :: -> anisotropic XC          0.001896714215 Eh    ::
         :: -> dispersion             -0.005153783644 Eh    ::
         :: repulsion energy           0.329775387538 Eh    ::
         :: add. restraining           0.000000000000 Eh    ::
         :: total charge               0.000000000000 e     ::
         :::::::::::::::::::::::::::::::::::::::::::::::::::::

           -------------------------------------------------
          |                Property Printout                |
           -------------------------------------------------

    * Orbital Energies and Occupations

         #    Occupation            Energy/Eh            Energy/eV
      -------------------------------------------------------------
         1        2.0000           -0.5460454             -14.8587
         2        2.0000           -0.5326200             -14.4933
         3        2.0000           -0.5041998             -13.7200
         4        2.0000           -0.4598828             -12.5140
         5        2.0000           -0.4472577             -12.1705
         6        2.0000           -0.4250058             -11.5650
         7        2.0000           -0.4171216             -11.3505
         8        2.0000           -0.3934245             -10.7056
         9        2.0000           -0.3889932             -10.5850
        10        2.0000           -0.3762134             -10.2373
        11        2.0000           -0.3432359              -9.3399
        12        2.0000           -0.3258358              -8.8664
        13        2.0000           -0.2921563              -7.9500
        14        1.9969           -0.2661319              -7.2418 (HOMO)
        15        0.0031           -0.2538226              -6.9069 (LUMO)
        16                         -0.1898715              -5.1667
        17                         -0.1749184              -4.7598
        18                         -0.1538594              -4.1867
        19                         -0.1112133              -3.0263
        20                         -0.0651030              -1.7715
        21                         -0.0178786              -0.4865
        22                          0.0259549               0.7063
        23                          0.1398664               3.8060
        24                          0.1739907               4.7345
        25                          0.2452529               6.6737
       ...                                ...                  ...
        32                          1.4925430              40.6142
      -------------------------------------------------------------
                  HL-Gap            0.0123093 Eh            0.3350 eV
             Fermi-level           -0.2599772 Eh           -7.0743 eV

     #   Z          covCN         q      C6AA      α(0)
     1   4 Be       1.832     0.390    14.909     8.940
     2   5 B        2.772     0.015    21.242     7.708
     3   5 B        2.770     0.016    21.232     7.707
     4   6 C        2.801    -0.127    31.233     9.155
     5   6 C        1.963    -0.100    33.844     9.395
     6   6 C        1.963    -0.061    32.707     9.236
     7   6 C        2.833    -0.124    31.144     9.145
     8   1 H        0.926    -0.004     3.124     2.764
     9   1 H        0.926    -0.005     3.140     2.771
    10   1 H        0.810     0.007     2.980     2.711
    11   1 H        0.810    -0.008     3.244     2.828

 Mol. C6AA /au·bohr⁶  :       1801.542928
 Mol. C8AA /au·bohr⁸  :      51997.913086
 Mol. α(0) /au        :         72.359375


Wiberg/Mayer (AO) data.
largest (>0.10) Wiberg bond orders for each atom

 ---------------------------------------------------------------------------
     #   Z sym  total        # sym  WBO       # sym  WBO       # sym  WBO
 ---------------------------------------------------------------------------
     1   4 Be   2.189 --     3 B    1.161     2 B    0.914
     2   5 B    3.412 --     4 C    1.281     3 B    0.982     1 Be   0.914
                             6 C    0.107
     3   5 B    3.298 --     1 Be   1.161     2 B    0.982     4 C    0.949
     4   6 C    3.966 --     5 C    1.569     2 B    1.281     3 B    0.949
                             7 C    0.124
     5   6 C    3.967 --     6 C    2.088     4 C    1.569
     6   6 C    3.977 --     5 C    2.088     7 C    1.698     2 B    0.107
     7   6 C    3.904 --     6 C    1.698     9 H    0.958     8 H    0.958
                             4 C    0.124
     8   1 H    0.991 --     7 C    0.958
     9   1 H    0.992 --     7 C    0.958
    10   1 H    1.000 --    11 H    0.999
    11   1 H    1.000 --    10 H    0.999
 ---------------------------------------------------------------------------

Topologies differ in total number of bonds
Writing topology from bond orders to xtbtopo.mol

molecular dipole:
                 x           y           z       tot (Debye)
 q only:       -0.639      -0.259      -3.525
   full:       -0.569      -0.134      -3.594       9.255
molecular quadrupole (traceless):
                xx          xy          yy          xz          yz          zz
 q only:        9.381      -1.265      13.182     -14.533      -3.385     -22.563
  q+dip:        4.056       0.800       6.667     -13.884      -2.466     -10.724
   full:        4.487      -0.915       9.925     -13.664      -2.121     -14.412

           -------------------------------------------------
          |                Geometry Summary                 |
           -------------------------------------------------

      molecular mass/u    :       82.7089458
   center of mass at/Å    :        1.2670219       0.3870821       2.6293126
  moments of inertia/u·Å² :        0.2708042E+02   0.4687227E+03   0.4910724E+03
rotational constants/cm⁻¹ :        0.6225026E+00   0.3596504E-01   0.3432820E-01

 * 10 selected distances

     #   Z          #   Z                                           value/Å
Note: The following floating-point exceptions are signalling: IEEE_UNDERFLOW_FLAG
normal termination of xtb
     1   4 Be       2   5 B                                       1.7328557 (max)
     1   4 Be       3   5 B                                       1.6681589
     2   5 B        3   5 B                                       1.6711422
     2   5 B        4   6 C                                       1.4602689
     4   6 C        5   6 C                                       1.3196153
     5   6 C        6   6 C                                       1.2528659
     6   6 C        7   6 C                                       1.3201286
     7   6 C        8   1 H                                       1.0799810
     7   6 C        9   1 H                                       1.0801496
    10   1 H       11   1 H                                       0.7780242 (min)

 * 6 distinct bonds (by element types)

   Z      Z             #   av. dist./Å        max./Å        min./Å
   1 H    1 H           1     0.7780242     0.7780242     0.7780242
   4 Be   5 B           2     1.7005073     1.7328557     1.6681589
   5 B    5 B           1     1.6711422     1.6711422     1.6711422
   1 H    6 C           2     1.0800653     1.0801496     1.0799810
   5 B    6 C           1     1.4602689     1.4602689     1.4602689
   6 C    6 C           3     1.2975366     1.3201286     1.2528659


optimized geometry written to: xtbopt.xyz


           -------------------------------------------------
          | TOTAL ENERGY              -13.386895354742 Eh   |
          | GRADIENT NORM               0.000777898319 Eh/α |
          | HOMO-LUMO GAP               0.334951784323 eV   |
           -------------------------------------------------
########################################################################
[WARNING] Runtime exception occurred
-2- restart_readRestart: Dimension missmatch in restart file.
-1- restart_readRestart: Number of electron missmatch in restart file.
########################################################################

------------------------------------------------------------------------
 * finished run on 2025/06/07 at 03:27:42.457     
------------------------------------------------------------------------
 total:
 * wall-time:     0 d,  0 h,  0 min,  0.324 sec
 *  cpu-time:     0 d,  0 h,  0 min,  4.405 sec
 * ratio c/w:    13.595 speedup
 SCF:
 * wall-time:     0 d,  0 h,  0 min,  0.018 sec
 *  cpu-time:     0 d,  0 h,  0 min,  0.263 sec
 * ratio c/w:    14.502 speedup
 ANC optimizer:
 * wall-time:     0 d,  0 h,  0 min,  0.303 sec
 *  cpu-time:     0 d,  0 h,  0 min,  4.110 sec
 * ratio c/w:    13.558 speedup

