      -----------------------------------------------------------      
     |                   =====================                   |     
     |                           x T B                           |     
     |                   =====================                   |     
     |                         S. Grimme                         |     
     |          Mulliken Center for Theoretical Chemistry        |     
     |                    University of Bonn                     |     
      -----------------------------------------------------------      

   * xtb version 6.5.1 (conda-forge) compiled by 'runner@Mac-1657629245115.local' on 2022-07-12

   xtb is free software: you can redistribute it and/or modify it under
   the terms of the GNU Lesser General Public License as published by
   the Free Software Foundation, either version 3 of the License, or
   (at your option) any later version.
   
   xtb is distributed in the hope that it will be useful,
   but WITHOUT ANY WARRANTY; without even the implied warranty of
   MERCHANTABILITY or FITNESS FOR A PARTICULAR PURPOSE.  See the
   GNU Lesser General Public License for more details.
   
   Cite this work as:
   * C. Bannwarth, E. Caldeweyher, S. Ehlert, A. Hansen, P. Pracht,
     J. Seibert, S. Spicher, S. Grimme, WIREs Comput. Mol. Sci., 2020, 11,
     e01493. DOI: 10.1002/wcms.1493
   
   for GFN2-xTB:
   * C. Bannwarth, S. Ehlert and S. Grimme., J. Chem. Theory Comput., 2019,
     15, 1652-1671. DOI: 10.1021/acs.jctc.8b01176
   for GFN1-xTB:
   * S. Grimme, C. Bannwarth, P. Shushkov, J. Chem. Theory Comput., 2017,
     13, 1989-2009. DOI: 10.1021/acs.jctc.7b00118
   for GFN0-xTB:
   * P. Pracht, E. Caldeweyher, S. Ehlert, S. Grimme, ChemRxiv, 2019, preprint.
     DOI: 10.26434/chemrxiv.8326202.v1
   for GFN-FF:
   * S. Spicher and S. Grimme, Angew. Chem. Int. Ed., 2020, 59, 15665-15673.
     DOI: 10.1002/anie.202004239
   
   for ALPB and GBSA implicit solvation:
   * S. Ehlert, M. Stahn, S. Spicher, S. Grimme, J. Chem. Theory Comput.,
     2021, 17, 4250-4261. DOI: 10.1021/acs.jctc.1c00471
   
   for DFT-D4:
   * E. Caldeweyher, C. Bannwarth and S. Grimme, J. Chem. Phys., 2017,
     147, 034112. DOI: 10.1063/1.4993215
   * E. Caldeweyher, S. Ehlert, A. Hansen, H. Neugebauer, S. Spicher,
     C. Bannwarth and S. Grimme, J. Chem. Phys., 2019, 150, 154122.
     DOI: 10.1063/1.5090222
   * E. Caldeweyher, J.-M. Mewes, S. Ehlert and S. Grimme, Phys. Chem. Chem. Phys.
     2020, 22, 8499-8512. DOI: 10.1039/D0CP00502A
   
   for sTDA-xTB:
   * S. Grimme and C. Bannwarth, J. Chem. Phys., 2016, 145, 054103.
     DOI: 10.1063/1.4959605
   
   in the mass-spec context:
   * V. Asgeirsson, C. Bauer and S. Grimme, Chem. Sci., 2017, 8, 4879.
     DOI: 10.1039/c7sc00601b
   * J. Koopman and S. Grimme, ACS Omega 2019, 4, 12, 15120-15133.
     DOI: 10.1021/acsomega.9b02011
   
   for metadynamics refer to:
   * S. Grimme, J. Chem. Theory Comput., 2019, 155, 2847-2862
     DOI: 10.1021/acs.jctc.9b00143
   
   for SPH calculations refer to:
   * S. Spicher and S. Grimme, J. Chem. Theory Comput., 2021, 17, 1701-1714
     DOI: 10.1021/acs.jctc.0c01306
   
   with help from (in alphabetical order)
   P. Atkinson, C. Bannwarth, F. Bohle, G. Brandenburg, E. Caldeweyher
   M. Checinski, S. Dohm, S. Ehlert, S. Ehrlich, I. Gerasimov, C. Hölzer
   A. Katbashev, J. Koopman, C. Lavigne, S. Lehtola, F. März, M. Müller,
   F. Musil, H. Neugebauer, J. Pisarek, C. Plett, P. Pracht, F. Pultar,
   J. Seibert, P. Shushkov, S. Spicher, M. Stahn, M. Steiner, T. Strunk,
   J. Stückrath, T. Rose, and J. Unsleber
   
 * started run on 2025/06/07 at 03:27:40.930     

           -------------------------------------------------
          |                Calculation Setup                |
           -------------------------------------------------

          program call               : xtb B2BeC2H5.xyz --gfn 2 --opt
          coordinate file            : B2BeC2H5.xyz
          omp threads                :                    16

   ID    Z sym.   atoms
    1    4 Be     1
    2    5 B      2, 3
    3    6 C      4, 5
    4    1 H      6-10

molecular fragmentation (1/2 indicates fragments):
1111222222
# atoms in fragment 1/2:     4     6
 fragment masses (1/2) :       42.64       17.05
CMA distance (Bohr)    :   4.942
constraining FC (au)   :  0.0500

           -------------------------------------------------
          |                 G F N 2 - x T B                 |
           -------------------------------------------------

        Reference                      10.1021/acs.jctc.8b01176
      * Hamiltonian:
        H0-scaling (s, p, d)           1.850000    2.230000    2.230000
        zeta-weighting                 0.500000
      * Dispersion:
        s8                             2.700000
        a1                             0.520000
        a2                             5.000000
        s9                             5.000000
      * Repulsion:
        kExp                           1.500000    1.000000
        rExp                           1.000000
      * Coulomb:
        alpha                          2.000000
        third order                    shell-resolved
        anisotropic                    true
        a3                             3.000000
        a5                             4.000000
        cn-shift                       1.200000
        cn-exp                         4.000000
        max-rad                        5.000000


          ...................................................
          :                      SETUP                      :
          :.................................................:
          :  # basis functions                  25          :
          :  # atomic orbitals                  25          :
          :  # shells                           15          :
          :  # electrons                        21          :
          :  max. iterations                   250          :
          :  Hamiltonian                  GFN2-xTB          :
          :  restarted?                      false          :
          :  GBSA solvation                  false          :
          :  PC potential                    false          :
          :  electronic temp.          300.0000000     K    :
          :  accuracy                    1.0000000          :
          :  -> integral cutoff          0.2500000E+02      :
          :  -> integral neglect         0.1000000E-07      :
          :  -> SCF convergence          0.1000000E-05 Eh   :
          :  -> wf. convergence          0.1000000E-03 e    :
          :  Broyden damping             0.4000000          :
          ...................................................

 iter      E             dE          RMSdq      gap      omega  full diag
   1     11.4140615  0.114141E+02  0.229E+01    0.41       0.0  T
   2     -4.1271225 -0.155412E+02  0.219E+01    0.19       1.0  T
   3     -4.2763882 -0.149266E+00  0.166E+01    0.39       1.0  T
   4     -4.7069560 -0.430568E+00  0.160E+01    0.94       1.0  T
   5     -7.0709917 -0.236404E+01  0.100E+01    0.93       1.0  T
   6     -7.6612565 -0.590265E+00  0.996E+00    1.15       1.0  T
   7     -8.0194962 -0.358240E+00  0.846E+00    0.96       1.0  T
   8     -7.7787480  0.240748E+00  0.788E+00    0.71       1.0  T
   9     -8.2792035 -0.500455E+00  0.800E+00    0.84       1.0  T
  10     -8.9967037 -0.717500E+00  0.630E+00    0.25       1.0  T
  11     -8.9277039  0.689999E-01  0.450E+00    0.74       1.0  T
  12      8.5178802  0.174456E+02  0.216E+01    0.12       1.0  T
  13     -8.5289578 -0.170468E+02  0.876E+00    0.48       1.0  T
  14     -8.8090790 -0.280121E+00  0.779E+00    0.35       1.0  T
  15     -9.1037788 -0.294700E+00  0.404E+00    0.68       1.0  T
  16     -9.0492509  0.545279E-01  0.373E+00    0.76       1.0  T
  17     -8.8304782  0.218773E+00  0.305E+00    0.90       1.0  T
  18     -9.1994882 -0.369010E+00  0.513E+00    0.38       1.0  T
  19     -9.0101430  0.189345E+00  0.388E+00    0.80       1.0  T
  20     -8.8981578  0.111985E+00  0.355E+00    0.88       1.0  T
  21     -8.9070127 -0.885490E-02  0.364E+00    0.88       1.0  T
  22     -9.0312477 -0.124235E+00  0.381E+00    0.79       1.0  T
  23     -9.0387677 -0.752004E-02  0.380E+00    0.79       1.0  T
  24     -9.0423939 -0.362623E-02  0.377E+00    0.79       1.0  T
  25     -9.0592073 -0.168133E-01  0.354E+00    0.77       1.0  T
  26     -9.0653830 -0.617574E-02  0.343E+00    0.77       1.0  T
  27     -9.1147918 -0.494088E-01  0.260E+00    0.72       1.0  T
  28     -9.1313856 -0.165938E-01  0.220E+00    0.71       1.0  T
  29     -9.1537686 -0.223830E-01  0.179E+00    0.68       1.0  T
  30     -9.1713369 -0.175683E-01  0.145E+00    0.65       1.0  T
  31     -9.2027102 -0.313733E-01  0.895E-01    0.56       1.0  T
  32     -9.2040131 -0.130288E-02  0.848E-01    0.55       1.0  T
  33     -9.2184929 -0.144798E-01  0.322E-01    0.42       1.0  T
  34     -9.2184886  0.426893E-05  0.296E-01    0.43       1.0  T
  35     -9.2176500  0.838594E-03  0.317E-01    0.45       1.0  T
  36     -9.2177454 -0.954074E-04  0.190E-01    0.46       1.0  T
  37     -9.2179937 -0.248274E-03  0.139E-01    0.45       1.0  T
  38     -9.2179339  0.598211E-04  0.135E-01    0.46       1.0  T
  39     -9.2181203 -0.186472E-03  0.110E-01    0.45       1.0  T
  40     -9.2181844 -0.640801E-04  0.959E-02    0.45       1.0  T
  41     -9.2183856 -0.201170E-03  0.551E-02    0.45       1.0  T
  42     -9.2184515 -0.658936E-04  0.368E-02    0.44       1.0  T
  43     -9.2184960 -0.445595E-04  0.195E-02    0.44       1.6  T
  44     -9.2185105 -0.144538E-04  0.111E-02    0.43       2.8  T
  45     -9.2185101  0.381662E-06  0.101E-02    0.43       3.1  T
  46     -9.2185103 -0.221491E-06  0.635E-03    0.43       5.0  T
  47     -9.2185106 -0.229647E-06  0.186E-03    0.43      17.0  T
  48     -9.2185106 -0.987025E-08  0.143E-03    0.43      22.1  T
  49     -9.2185106 -0.257024E-08  0.352E-04    0.43      89.7  T
  50     -9.2185106 -0.687610E-10  0.863E-05    0.43     366.4  T

   *** convergence criteria satisfied after 50 iterations ***

         #    Occupation            Energy/Eh            Energy/eV
      -------------------------------------------------------------
         1        2.0000           -0.5648969             -15.3716
       ...           ...                  ...                  ...
         5        2.0000           -0.3666363              -9.9767
         6        2.0000           -0.3168238              -8.6212
         7        2.0000           -0.3114988              -8.4763
         8        2.0000           -0.2997085              -8.1555
         9        2.0000           -0.2866569              -7.8003
        10        2.0000           -0.2607225              -7.0946
        11        0.9998           -0.2287289              -6.2240 (HOMO)
        12        0.0002           -0.2127704              -5.7898 (LUMO)
        13                         -0.2050059              -5.5785
        14                         -0.1999082              -5.4398
        15                         -0.1569496              -4.2708
        16                         -0.1345817              -3.6622
       ...                                ...                  ...
        25                          0.6624170              18.0253
      -------------------------------------------------------------
                  HL-Gap            0.0159585 Eh            0.4343 eV
             Fermi-level           -0.2327378 Eh           -6.3331 eV

 SCC (total)                   0 d,  0 h,  0 min,  0.013 sec
 SCC setup                      ...        0 min,  0.000 sec (  0.520%)
 Dispersion                     ...        0 min,  0.000 sec (  0.668%)
 classical contributions        ...        0 min,  0.000 sec (  0.306%)
 integral evaluation            ...        0 min,  0.000 sec (  0.959%)
 iterations                     ...        0 min,  0.012 sec ( 93.472%)
 molecular gradient             ...        0 min,  0.000 sec (  3.748%)
 printout                       ...        0 min,  0.000 sec (  0.252%)

         :::::::::::::::::::::::::::::::::::::::::::::::::::::
         ::                     SUMMARY                     ::
         :::::::::::::::::::::::::::::::::::::::::::::::::::::
         :: total energy              -9.139541965913 Eh    ::
         :: gradient norm              0.306038344564 Eh/a0 ::
         :: HOMO-LUMO gap              0.434252821848 eV    ::
         ::.................................................::
         :: SCC energy                -9.218510570627 Eh    ::
         :: -> isotropic ES           -0.014904804489 Eh    ::
         :: -> anisotropic ES          0.009413890184 Eh    ::
         :: -> anisotropic XC         -0.015439412761 Eh    ::
         :: -> dispersion             -0.006280994604 Eh    ::
         :: repulsion energy           0.078970020194 Eh    ::
         :: add. restraining           0.000000000000 Eh    ::
         :: total charge              -0.000000000000 e     ::
         :::::::::::::::::::::::::::::::::::::::::::::::::::::

      ----------------------------------------------------------- 
     |                   =====================                   |
     |                        A N C O P T                        |
     |                   =====================                   |
     |               Approximate Normal Coordinate               |
     |                Rational Function Optimizer                |
      ----------------------------------------------------------- 

          ...................................................
          :                      SETUP                      :
          :.................................................:
          :   optimization level            normal          :
          :   max. optcycles                   200          :
          :   ANC micro-cycles                  20          :
          :   degrees of freedom                24          :
          :.................................................:
          :   RF solver                   davidson          :
          :   write xtbopt.log                true          :
          :   linear?                        false          :
          :   energy convergence         0.5000000E-05 Eh   :
          :   grad. convergence          0.1000000E-02 Eh/α :
          :   maximium RF displ.         1.0000000          :
          :   Hlow (freq-cutoff)         0.1000000E-01      :
          :   Hmax (freq-cutoff)         5.0000000          :
          :   S6 in model hess.         20.0000000          :
          ...................................................

generating ANC from model Hessian ...
Using Lindh-Hessian (1995)
 Shifting diagonal of input Hessian by    1.9190941562075112E-002
 Lowest  eigenvalues of input Hessian
    0.010000    0.019057    0.000000    0.000000    0.000000    0.000000
    0.000000    0.000000    0.019690    0.020197    0.020741    0.021383
    0.027673    0.031380    0.034830    0.041903    0.047003    0.062968
 Highest eigenvalues
    0.261245    0.317161    0.364820    0.391747    0.485477    0.551325


........................................................................
.............................. CYCLE    1 ..............................
........................................................................
   1     -9.2185106 -0.921851E+01  0.112E-04    0.43       0.0  T
   2     -9.2185106  0.621266E-08  0.511E-04    0.43      61.9  T
   3     -9.2185106 -0.541086E-08  0.223E-04    0.43     142.1  T
     SCC iter.                  ...        0 min,  0.001 sec
     gradient                   ...        0 min,  0.000 sec
 * total energy  :    -9.1395420 Eh     change        0.8456400E-09 Eh
   gradient norm :     0.3058673 Eh/α   predicted     0.0000000E+00 (-100.00%)
   displ. norm   :     0.7575759 α      lambda       -0.2132947E+00
   maximum displ.:     0.3213348 α      in ANC's #1, #17, #22, ...

........................................................................
.............................. CYCLE    2 ..............................
........................................................................
   1     -9.3799131 -0.937991E+01  0.258E+00    0.66       0.0  T
   2     -9.3759260  0.398711E-02  0.188E+00    0.48       1.0  T
   3     -9.3121100  0.638160E-01  0.227E+00    1.16       1.0  T
   4     -9.3781262 -0.660162E-01  0.579E-01    0.54       1.0  T
   5     -9.3804908 -0.236463E-02  0.589E-01    0.65       1.0  T
   6     -9.3816581 -0.116729E-02  0.367E-01    0.75       1.0  T
   7     -9.3776193  0.403877E-02  0.729E-01    0.49       1.0  T
   8     -9.3827000 -0.508071E-02  0.204E-01    0.69       1.0  T
   9     -9.3832515 -0.551495E-03  0.702E-02    0.67       1.0  T
  10     -9.3832408  0.107033E-04  0.962E-02    0.62       1.0  T
  11     -9.3833302 -0.893800E-04  0.444E-03    0.64       7.1  T
  12     -9.3833301  0.452999E-07  0.265E-03    0.64      11.9  T
  13     -9.3833302 -0.954180E-07  0.564E-04    0.64      56.0  T
  14     -9.3833302  0.574275E-09  0.465E-04    0.64      68.0  T
     SCC iter.                  ...        0 min,  0.002 sec
     gradient                   ...        0 min,  0.001 sec
 * total energy  :    -9.3106799 Eh     change       -0.1711380E+00 Eh
   gradient norm :     0.2254570 Eh/α   predicted    -0.1678546E+00 (  -1.92%)
   displ. norm   :     0.8310582 α      lambda       -0.1824865E+00
   maximum displ.:     0.5130032 α      in ANC's #22, #16, #13, ...

........................................................................
.............................. CYCLE    3 ..............................
........................................................................
   1     -9.6040265 -0.960403E+01  0.313E+00    1.35       0.0  T
   2     -9.5041744  0.998521E-01  0.409E+00    2.42       1.0  T
   3     -9.5675743 -0.633999E-01  0.274E+00    0.91       1.0  T
   4     -9.4996600  0.679143E-01  0.308E+00    2.19       1.0  T
   5     -9.5979472 -0.982873E-01  0.107E+00    1.92       1.0  T
   6     -9.6146996 -0.167524E-01  0.781E-01    1.49       1.0  T
   7     -9.6089047  0.579487E-02  0.108E+00    1.32       1.0  T
   8     -9.6131094 -0.420463E-02  0.643E-01    1.40       1.0  T
   9     -9.6149839 -0.187449E-02  0.274E-01    1.54       1.0  T
  10     -9.6149952 -0.113724E-04  0.252E-01    1.54       1.0  T
  11     -9.6149793  0.159082E-04  0.173E-01    1.55       1.0  T
  12     -9.6150347 -0.554055E-04  0.347E-02    1.57       1.0  T
  13     -9.6150373 -0.256245E-05  0.191E-02    1.55       1.7  T
  14     -9.6150410 -0.366392E-05  0.952E-03    1.56       3.3  T
  15     -9.6150412 -0.277270E-06  0.719E-03    1.56       4.4  T
  16     -9.6150414 -0.111751E-06  0.701E-04    1.56      45.1  T
  17     -9.6150414 -0.845350E-09  0.200E-04    1.56     157.9  T
     SCC iter.                  ...        0 min,  0.003 sec
     gradient                   ...        0 min,  0.001 sec
 * total energy  :    -9.4024239 Eh     change       -0.9174395E-01 Eh
   gradient norm :     0.2997622 Eh/α   predicted    -0.1542611E+00 (  68.14%)
   displ. norm   :     0.5460432 α      lambda       -0.1144080E+00
   maximum displ.:     0.2317464 α      in ANC's #23, #10, #8, ...

........................................................................
.............................. CYCLE    4 ..............................
........................................................................
   1     -9.6325725 -0.963257E+01  0.216E+00    1.65       0.0  T
   2     -9.6286656  0.390689E-02  0.159E+00    1.54       1.0  T
   3     -9.5439833  0.846823E-01  0.281E+00    2.04       1.0  T
   4     -9.6296982 -0.857149E-01  0.560E-01    1.52       1.0  T
   5     -9.6325904 -0.289222E-02  0.238E-01    1.69       1.0  T
   6     -9.6323150  0.275395E-03  0.323E-01    1.54       1.0  T
   7     -9.6327930 -0.477926E-03  0.262E-01    1.57       1.0  T
   8     -9.6335922 -0.799226E-03  0.784E-02    1.60       1.0  T
   9     -9.6336368 -0.446431E-04  0.173E-02    1.62       1.8  T
  10     -9.6336393 -0.242886E-05  0.144E-02    1.62       2.2  T
  11     -9.6336393  0.120128E-08  0.532E-03    1.62       5.9  T
  12     -9.6336394 -0.111552E-06  0.224E-03    1.62      14.1  T
  13     -9.6336394 -0.560141E-07  0.274E-04    1.62     115.4  T
  14     -9.6336394 -0.819995E-09  0.109E-04    1.62     289.4  T
     SCC iter.                  ...        0 min,  0.003 sec
     gradient                   ...        0 min,  0.000 sec
 * total energy  :    -9.4726359 Eh     change       -0.7021200E-01 Eh
   gradient norm :     0.1120634 Eh/α   predicted    -0.7426015E-01 (   5.77%)
   displ. norm   :     0.6743045 α      lambda       -0.6525160E-01
   maximum displ.:     0.3162226 α      in ANC's #22, #10, #8, ...

........................................................................
.............................. CYCLE    5 ..............................
........................................................................
   1     -9.7255658 -0.972557E+01  0.265E+00    1.77       0.0  T
   2     -9.7145707  0.109952E-01  0.194E+00    1.89       1.0  T
   3     -9.6352688  0.793019E-01  0.251E+00    1.54       1.0  T
   4     -9.6678982 -0.326294E-01  0.181E+00    2.05       1.0  T
   5     -9.7258431 -0.579449E-01  0.434E-01    1.84       1.0  T
   6     -9.7293776 -0.353454E-02  0.308E-01    1.76       1.0  T
   7     -9.7285195  0.858081E-03  0.309E-01    1.73       1.0  T
   8     -9.7300775 -0.155801E-02  0.527E-02    1.79       1.0  T
   9     -9.7301517 -0.741169E-04  0.363E-02    1.78       1.0  T
  10     -9.7301520 -0.331073E-06  0.202E-02    1.78       1.6  T
  11     -9.7301516  0.439896E-06  0.108E-02    1.78       2.9  T
  12     -9.7301523 -0.768907E-06  0.666E-03    1.78       4.7  T
  13     -9.7301527 -0.352105E-06  0.212E-03    1.78      14.9  T
  14     -9.7301527 -0.464360E-07  0.338E-04    1.78      93.5  T
  15     -9.7301527 -0.153056E-08  0.430E-05    1.78     735.4  T
     SCC iter.                  ...        0 min,  0.002 sec
     gradient                   ...        0 min,  0.000 sec
 * total energy  :    -9.5120830 Eh     change       -0.3944713E-01 Eh
   gradient norm :     0.1430811 Eh/α   predicted    -0.4746030E-01 (  20.31%)
   displ. norm   :     0.6762373 α      lambda       -0.6333377E-01
   maximum displ.:     0.3719971 α      in ANC's #15, #22, #16, ...

........................................................................
.............................. CYCLE    6 ..............................
........................................................................
   1     -9.7869048 -0.978690E+01  0.149E+00    1.28       0.0  T
   2     -9.7794956  0.740914E-02  0.124E+00    1.24       1.0  T
   3     -9.7730668  0.642885E-02  0.114E+00    1.25       1.0  T
   4     -9.7493723  0.236945E-01  0.142E+00    1.51       1.0  T
   5     -9.7899156 -0.405434E-01  0.186E-01    1.28       1.0  T
   6     -9.7901389 -0.223213E-03  0.142E-01    1.29       1.0  T
   7     -9.7894026  0.736230E-03  0.220E-01    1.26       1.0  T
   8     -9.7901592 -0.756570E-03  0.730E-02    1.29       1.0  T
   9     -9.7902125 -0.533341E-04  0.278E-02    1.29       1.1  T
  10     -9.7902117  0.840941E-06  0.234E-02    1.29       1.4  T
  11     -9.7902134 -0.167356E-05  0.687E-03    1.29       4.6  T
  12     -9.7902134 -0.297479E-07  0.312E-03    1.29      10.1  T
  13     -9.7902134 -0.372940E-07  0.159E-03    1.29      19.9  T
  14     -9.7902135 -0.166920E-07  0.113E-04    1.29     279.9  T
  15     -9.7902135 -0.723954E-10  0.124E-05    1.29    2549.4  T
     SCC iter.                  ...        0 min,  0.002 sec
     gradient                   ...        0 min,  0.000 sec
 * total energy  :    -9.5554982 Eh     change       -0.4341519E-01 Eh
   gradient norm :     0.1807860 Eh/α   predicted    -0.4614806E-01 (   6.29%)
   displ. norm   :     0.7366406 α      lambda       -0.8566479E-01
   maximum displ.:     0.4535396 α      in ANC's #15, #13, #16, ...

........................................................................
.............................. CYCLE    7 ..............................
........................................................................
   1     -9.8020723 -0.980207E+01  0.151E+00    1.04       0.0  T
   2     -9.7963635  0.570886E-02  0.106E+00    1.02       1.0  T
   3     -9.7919791  0.438435E-02  0.110E+00    1.13       1.0  T
   4     -9.7843684  0.761072E-02  0.102E+00    1.10       1.0  T
   5     -9.8040559 -0.196875E-01  0.457E-01    0.97       1.0  T
   6     -9.8075911 -0.353521E-02  0.124E-01    1.09       1.0  T
   7     -9.8073555  0.235632E-03  0.151E-01    1.05       1.0  T
   8     -9.8076351 -0.279645E-03  0.906E-02    1.06       1.0  T
   9     -9.8077622 -0.127087E-03  0.228E-02    1.06       1.4  T
  10     -9.8077640 -0.174518E-05  0.112E-02    1.06       2.8  T
  11     -9.8077662 -0.220060E-05  0.187E-03    1.07      16.9  T
  12     -9.8077662 -0.596372E-07  0.247E-04    1.07     127.8  T
  13     -9.8077662 -0.582823E-11  0.882E-05    1.07     358.5  T
     SCC iter.                  ...        0 min,  0.002 sec
     gradient                   ...        0 min,  0.001 sec
 * total energy  :    -9.5797729 Eh     change       -0.2427470E-01 Eh
   gradient norm :     0.2227865 Eh/α   predicted    -0.6607493E-01 ( 172.20%)
   displ. norm   :     0.4803046 α      lambda       -0.7158440E-01
   maximum displ.:     0.1917780 α      in ANC's #18, #15, #2, ...

........................................................................
.............................. CYCLE    8 ..............................
........................................................................
   1     -9.7498717 -0.974987E+01  0.255E+00    1.92       0.0  T
   2     -9.6651484  0.847233E-01  0.285E+00    1.29       1.0  T
   3     -9.7263029 -0.611544E-01  0.175E+00    2.01       1.0  T
   4     -9.6850024  0.413005E-01  0.226E+00    1.42       1.0  T
   5     -9.7382617 -0.532593E-01  0.119E+00    1.94       1.0  T
   6     -9.7587546 -0.204929E-01  0.551E-01    1.83       1.0  T
   7     -9.7664673 -0.771268E-02  0.300E-01    1.69       1.0  T
   8     -9.7659909  0.476425E-03  0.298E-01    1.66       1.0  T
   9     -9.7668133 -0.822437E-03  0.401E-02    1.70       1.0  T
  10     -9.7668309 -0.176262E-04  0.367E-02    1.71       1.0  T
  11     -9.7668329 -0.192292E-05  0.369E-03    1.71       8.6  T
  12     -9.7668330 -0.955885E-07  0.218E-03    1.71      14.5  T
  13     -9.7668330 -0.656896E-07  0.726E-04    1.71      43.6  T
  14     -9.7668330 -0.342194E-08  0.994E-05    1.71     318.1  T
     SCC iter.                  ...        0 min,  0.002 sec
     gradient                   ...        0 min,  0.001 sec
 * total energy  :    -9.5989190 Eh     change       -0.1914606E-01 Eh
   gradient norm :     0.1103514 Eh/α   predicted    -0.4404918E-01 ( 130.07%)
   displ. norm   :     0.4830664 α      lambda       -0.3682645E-01
   maximum displ.:     0.2759613 α      in ANC's #22, #13, #14, ...

........................................................................
.............................. CYCLE    9 ..............................
........................................................................
   1     -9.8216627 -0.982166E+01  0.162E+00    1.72       0.0  T
   2     -9.8209474  0.715361E-03  0.113E+00    1.77       1.0  T
   3     -9.8016494  0.192979E-01  0.129E+00    1.72       1.0  T
   4     -9.8049530 -0.330354E-02  0.835E-01    1.60       1.0  T
   5     -9.8219043 -0.169513E-01  0.191E-01    1.77       1.0  T
   6     -9.8222526 -0.348286E-03  0.181E-01    1.72       1.0  T
   7     -9.8221008  0.151757E-03  0.171E-01    1.71       1.0  T
   8     -9.8223054 -0.204643E-03  0.121E-01    1.72       1.0  T
   9     -9.8226039 -0.298408E-03  0.118E-02    1.73       2.7  T
  10     -9.8226054 -0.152421E-05  0.576E-03    1.73       5.5  T
  11     -9.8226059 -0.559965E-06  0.662E-04    1.73      47.7  T
  12     -9.8226059 -0.125332E-08  0.990E-05    1.73     319.4  T
     SCC iter.                  ...        0 min,  0.002 sec
     gradient                   ...        0 min,  0.000 sec
 * total energy  :    -9.6211631 Eh     change       -0.2224417E-01 Eh
   gradient norm :     0.0594842 Eh/α   predicted    -0.2271001E-01 (   2.09%)
   displ. norm   :     0.4082443 α      lambda       -0.1343758E-01
   maximum displ.:     0.2076899 α      in ANC's #1, #14, #10, ...

........................................................................
.............................. CYCLE   10 ..............................
........................................................................
   1     -9.8371084 -0.983711E+01  0.957E-01    1.76       0.0  T
   2     -9.8341578  0.295056E-02  0.794E-01    1.69       1.0  T
   3     -9.8289125  0.524535E-02  0.846E-01    1.83       1.0  T
   4     -9.8307067 -0.179421E-02  0.564E-01    1.64       1.0  T
   5     -9.8369712 -0.626451E-02  0.226E-01    1.76       1.0  T
   6     -9.8380440 -0.107278E-02  0.698E-02    1.76       1.0  T
   7     -9.8379229  0.121109E-03  0.101E-01    1.74       1.0  T
   8     -9.8380911 -0.168262E-03  0.900E-03    1.75       3.5  T
   9     -9.8380920 -0.900960E-06  0.362E-03    1.75       8.7  T
  10     -9.8380921 -0.448497E-07  0.233E-03    1.75      13.6  T
  11     -9.8380921 -0.637228E-07  0.450E-04    1.75      70.2  T
  12     -9.8380921 -0.169200E-08  0.548E-05    1.75     576.8  T
     SCC iter.                  ...        0 min,  0.002 sec
     gradient                   ...        0 min,  0.000 sec
 * total energy  :    -9.6257934 Eh     change       -0.4630273E-02 Eh
   gradient norm :     0.0479949 Eh/α   predicted    -0.7838560E-02 (  69.29%)
   displ. norm   :     0.2620749 α      lambda       -0.6362111E-02
   maximum displ.:     0.0947571 α      in ANC's #6, #9, #3, ...

........................................................................
.............................. CYCLE   11 ..............................
........................................................................
   1     -9.8513579 -0.985136E+01  0.611E-01    1.62       0.0  T
   2     -9.8507279  0.629974E-03  0.429E-01    1.55       1.0  T
   3     -9.8424944  0.823350E-02  0.741E-01    1.77       1.0  T
   4     -9.8508827 -0.838824E-02  0.178E-01    1.60       1.0  T
   5     -9.8513718 -0.489161E-03  0.795E-02    1.60       1.0  T
   6     -9.8514682 -0.963469E-04  0.431E-02    1.60       1.0  T
   7     -9.8514286  0.395325E-04  0.508E-02    1.59       1.0  T
   8     -9.8514824 -0.537509E-04  0.756E-03    1.60       4.2  T
   9     -9.8514827 -0.345830E-06  0.379E-03    1.60       8.3  T
  10     -9.8514829 -0.160453E-06  0.769E-04    1.60      41.1  T
  11     -9.8514829 -0.209569E-08  0.462E-04    1.60      68.4  T
     SCC iter.                  ...        0 min,  0.002 sec
     gradient                   ...        0 min,  0.000 sec
 * total energy  :    -9.6276522 Eh     change       -0.1858758E-02 Eh
   gradient norm :     0.0364924 Eh/α   predicted    -0.3399541E-02 (  82.89%)
   displ. norm   :     0.2332360 α      lambda       -0.4195613E-02
   maximum displ.:     0.1256728 α      in ANC's #5, #1, #3, ...

........................................................................
.............................. CYCLE   12 ..............................
........................................................................
   1     -9.8418995 -0.984190E+01  0.846E-01    1.83       0.0  T
   2     -9.8410641  0.835403E-03  0.620E-01    1.82       1.0  T
   3     -9.8340772  0.698684E-02  0.771E-01    1.71       1.0  T
   4     -9.8392124 -0.513520E-02  0.380E-01    1.88       1.0  T
   5     -9.8419392 -0.272677E-02  0.132E-01    1.81       1.0  T
   6     -9.8421920 -0.252838E-03  0.463E-02    1.83       1.0  T
   7     -9.8421980 -0.598214E-05  0.379E-02    1.83       1.0  T
   8     -9.8422087 -0.106478E-04  0.222E-02    1.82       1.4  T
   9     -9.8422176 -0.890699E-05  0.321E-03    1.83       9.8  T
  10     -9.8422175  0.526905E-07  0.258E-03    1.83      12.2  T
  11     -9.8422177 -0.138798E-06  0.596E-04    1.83      53.0  T
  12     -9.8422177 -0.472613E-08  0.512E-05    1.83     617.1  T
     SCC iter.                  ...        0 min,  0.002 sec
     gradient                   ...        0 min,  0.000 sec
 * total energy  :    -9.6283076 Eh     change       -0.6554328E-03 Eh
   gradient norm :     0.0337584 Eh/α   predicted    -0.2211928E-02 ( 237.48%)
   displ. norm   :     0.2226204 α      lambda       -0.3497990E-02
   maximum displ.:     0.1608011 α      in ANC's #1, #15, #5, ...

........................................................................
.............................. CYCLE   13 ..............................
........................................................................
   1     -9.8323645 -0.983236E+01  0.472E-01    1.81       0.0  T
   2     -9.8319392  0.425357E-03  0.337E-01    1.78       1.0  T
   3     -9.8258157  0.612342E-02  0.584E-01    1.86       1.0  T
   4     -9.8319989 -0.618314E-02  0.176E-01    1.79       1.0  T
   5     -9.8323952 -0.396307E-03  0.618E-02    1.81       1.0  T
   6     -9.8324511 -0.558882E-04  0.245E-02    1.80       1.3  T
   7     -9.8324319  0.191582E-04  0.340E-02    1.79       1.0  T
   8     -9.8324469 -0.149837E-04  0.152E-02    1.80       2.1  T
   9     -9.8324522 -0.528245E-05  0.204E-03    1.80      15.5  T
  10     -9.8324522 -0.195859E-07  0.717E-04    1.80      44.1  T
  11     -9.8324522 -0.817744E-08  0.318E-04    1.80      99.4  T
     SCC iter.                  ...        0 min,  0.002 sec
     gradient                   ...        0 min,  0.000 sec
 * total energy  :    -9.6289560 Eh     change       -0.6484403E-03 Eh
   gradient norm :     0.0327161 Eh/α   predicted    -0.1835674E-02 ( 183.09%)
   displ. norm   :     0.1949598 α      lambda       -0.3239714E-02
   maximum displ.:     0.0852338 α      in ANC's #10, #9, #5, ...

........................................................................
.............................. CYCLE   14 ..............................
........................................................................
   1     -9.8462710 -0.984627E+01  0.558E-01    1.75       0.0  T
   2     -9.8461402  0.130771E-03  0.380E-01    1.73       1.0  T
   3     -9.8393948  0.674545E-02  0.640E-01    1.84       1.0  T
   4     -9.8460607 -0.666590E-02  0.119E-01    1.72       1.0  T
   5     -9.8462805 -0.219797E-03  0.482E-02    1.75       1.0  T
   6     -9.8462744  0.603035E-05  0.526E-02    1.75       1.0  T
   7     -9.8462866 -0.121256E-04  0.370E-02    1.74       1.0  T
   8     -9.8463121 -0.255527E-04  0.819E-03    1.74       3.9  T
   9     -9.8463129 -0.756229E-06  0.289E-03    1.74      10.9  T
  10     -9.8463130 -0.135263E-06  0.102E-03    1.74      31.0  T
  11     -9.8463130 -0.113595E-07  0.220E-04    1.74     143.5  T
  12     -9.8463130 -0.714770E-10  0.450E-05    1.74     702.8  T
     SCC iter.                  ...        0 min,  0.002 sec
     gradient                   ...        0 min,  0.000 sec
 * total energy  :    -9.6294367 Eh     change       -0.4806446E-03 Eh
   gradient norm :     0.0280926 Eh/α   predicted    -0.1681427E-02 ( 249.83%)
   displ. norm   :     0.1635172 α      lambda       -0.2478346E-02
   maximum displ.:     0.0687771 α      in ANC's #5, #1, #3, ...

........................................................................
.............................. CYCLE   15 ..............................
........................................................................
   1     -9.8496199 -0.984962E+01  0.624E-01    1.74       0.0  T
   2     -9.8489991  0.620804E-03  0.453E-01    1.73       1.0  T
   3     -9.8398493  0.914979E-02  0.710E-01    1.72       1.0  T
   4     -9.8480612 -0.821189E-02  0.303E-01    1.79       1.0  T
   5     -9.8497441 -0.168289E-02  0.547E-02    1.73       1.0  T
   6     -9.8497636 -0.195380E-04  0.296E-02    1.74       1.1  T
   7     -9.8497275  0.360964E-04  0.456E-02    1.73       1.0  T
   8     -9.8497675 -0.400496E-04  0.544E-03    1.74       5.8  T
   9     -9.8497677 -0.130600E-06  0.316E-03    1.74      10.0  T
  10     -9.8497677 -0.524066E-07  0.131E-03    1.74      24.1  T
  11     -9.8497678 -0.321794E-07  0.557E-04    1.74      56.8  T
  12     -9.8497678 -0.412265E-08  0.413E-05    1.74     765.0  T
     SCC iter.                  ...        0 min,  0.002 sec
     gradient                   ...        0 min,  0.000 sec
 * total energy  :    -9.6306816 Eh     change       -0.1244952E-02 Eh
   gradient norm :     0.0127199 Eh/α   predicted    -0.1272308E-02 (   2.20%)
   displ. norm   :     0.1932529 α      lambda       -0.9413243E-03
   maximum displ.:     0.1447886 α      in ANC's #1, #8, #9, ...

........................................................................
.............................. CYCLE   16 ..............................
........................................................................
   1     -9.8399685 -0.983997E+01  0.352E-01    1.76       0.0  T
   2     -9.8398866  0.818695E-04  0.238E-01    1.77       1.0  T
   3     -9.8385259  0.136071E-02  0.320E-01    1.72       1.0  T
   4     -9.8399421 -0.141624E-02  0.666E-02    1.78       1.0  T
   5     -9.8400005 -0.583650E-04  0.175E-02    1.76       1.8  T
   6     -9.8399809  0.195959E-04  0.327E-02    1.77       1.0  T
   7     -9.8400025 -0.215736E-04  0.246E-03    1.76      12.9  T
   8     -9.8400025 -0.237896E-07  0.136E-03    1.76      23.2  T
   9     -9.8400025 -0.421144E-08  0.966E-04    1.76      32.7  T
  10     -9.8400025 -0.104548E-07  0.224E-04    1.76     141.2  T
     SCC iter.                  ...        0 min,  0.002 sec
     gradient                   ...        0 min,  0.000 sec
 * total energy  :    -9.6312091 Eh     change       -0.5274734E-03 Eh
   gradient norm :     0.0164976 Eh/α   predicted    -0.4882397E-03 (  -7.44%)
   displ. norm   :     0.3608211 α      lambda       -0.1833074E-02
   maximum displ.:     0.2265139 α      in ANC's #1, #8, #3, ...

........................................................................
.............................. CYCLE   17 ..............................
........................................................................
   1     -9.8423061 -0.984231E+01  0.599E-01    1.85       0.0  T
   2     -9.8416677  0.638430E-03  0.450E-01    1.82       1.0  T
   3     -9.8388898  0.277784E-02  0.530E-01    1.84       1.0  T
   4     -9.8415155 -0.262564E-02  0.225E-01    1.87       1.0  T
   5     -9.8424033 -0.887844E-03  0.826E-02    1.83       1.0  T
   6     -9.8425013 -0.980325E-04  0.348E-02    1.84       1.0  T
   7     -9.8425133 -0.119876E-04  0.155E-02    1.83       2.0  T
   8     -9.8425159 -0.256376E-05  0.651E-03    1.83       4.9  T
   9     -9.8425164 -0.522438E-06  0.184E-03    1.84      17.2  T
  10     -9.8425164 -0.122510E-07  0.427E-04    1.84      74.0  T
  11     -9.8425164 -0.217326E-08  0.257E-04    1.84     123.0  T
     SCC iter.                  ...        0 min,  0.002 sec
     gradient                   ...        0 min,  0.000 sec
 * total energy  :    -9.6314012 Eh     change       -0.1921432E-03 Eh
   gradient norm :     0.0309885 Eh/α   predicted    -0.1035865E-02 ( 439.11%)
   displ. norm   :     0.1927005 α      lambda       -0.2111785E-02
   maximum displ.:     0.0845826 α      in ANC's #1, #8, #9, ...

........................................................................
.............................. CYCLE   18 ..............................
........................................................................
   1     -9.8443989 -0.984440E+01  0.320E-01    1.82       0.0  T
   2     -9.8441550  0.243880E-03  0.252E-01    1.79       1.0  T
   3     -9.8436759  0.479115E-03  0.258E-01    1.83       1.0  T
   4     -9.8444025 -0.726622E-03  0.816E-02    1.80       1.0  T
   5     -9.8444811 -0.786092E-04  0.193E-02    1.82       1.6  T
   6     -9.8444685  0.126665E-04  0.302E-02    1.81       1.0  T
   7     -9.8444829 -0.144059E-04  0.108E-02    1.81       2.9  T
   8     -9.8444840 -0.109390E-05  0.326E-03    1.81       9.7  T
   9     -9.8444841 -0.123248E-06  0.120E-03    1.81      26.4  T
  10     -9.8444841 -0.993404E-08  0.179E-04    1.81     176.7  T
  11     -9.8444841 -0.217270E-09  0.306E-05    1.81    1035.0  T
     SCC iter.                  ...        0 min,  0.002 sec
     gradient                   ...        0 min,  0.001 sec
 * total energy  :    -9.6327524 Eh     change       -0.1351111E-02 Eh
   gradient norm :     0.0112321 Eh/α   predicted    -0.1095100E-02 ( -18.95%)
   displ. norm   :     0.3172674 α      lambda       -0.7866143E-03
   maximum displ.:     0.1673089 α      in ANC's #1, #8, #3, ...

........................................................................
.............................. CYCLE   19 ..............................
........................................................................
   1     -9.8446975 -0.984470E+01  0.511E-01    1.75       0.0  T
   2     -9.8445894  0.108086E-03  0.335E-01    1.75       1.0  T
   3     -9.8397240  0.486538E-02  0.497E-01    1.74       1.0  T
   4     -9.8443347 -0.461068E-02  0.150E-01    1.78       1.0  T
   5     -9.8447164 -0.381757E-03  0.397E-02    1.75       1.0  T
   6     -9.8447296 -0.131646E-04  0.222E-02    1.76       1.4  T
   7     -9.8447271  0.250574E-05  0.182E-02    1.75       1.7  T
   8     -9.8447333 -0.620446E-05  0.498E-03    1.76       6.3  T
   9     -9.8447337 -0.404388E-06  0.118E-03    1.76      26.9  T
  10     -9.8447337 -0.848918E-08  0.347E-04    1.76      91.0  T
  11     -9.8447337 -0.980281E-09  0.119E-04    1.76     265.5  T
     SCC iter.                  ...        0 min,  0.002 sec
     gradient                   ...        0 min,  0.000 sec
 * total energy  :    -9.6332299 Eh     change       -0.4775673E-03 Eh
   gradient norm :     0.0100909 Eh/α   predicted    -0.4329002E-03 (  -9.35%)
   displ. norm   :     0.3446247 α      lambda       -0.6160474E-03
   maximum displ.:     0.1972285 α      in ANC's #1, #8, #22, ...

........................................................................
.............................. CYCLE   20 ..............................
........................................................................
   1     -9.8489692 -0.984897E+01  0.388E-01    1.76       0.0  T
   2     -9.8489353  0.339607E-04  0.244E-01    1.75       1.0  T
   3     -9.8473339  0.160133E-02  0.307E-01    1.79       1.0  T
   4     -9.8489131 -0.157915E-02  0.602E-02    1.77       1.0  T
   5     -9.8489740 -0.609285E-04  0.250E-02    1.75       1.3  T
   6     -9.8489805 -0.648721E-05  0.142E-02    1.75       2.2  T
   7     -9.8489815 -0.987271E-06  0.470E-03    1.75       6.7  T
   8     -9.8489817 -0.221659E-06  0.237E-03    1.75      13.3  T
   9     -9.8489818 -0.701117E-07  0.766E-04    1.75      41.3  T
  10     -9.8489818 -0.238041E-08  0.165E-04    1.75     191.4  T
     SCC iter.                  ...        0 min,  0.002 sec
     gradient                   ...        0 min,  0.000 sec
 * total energy  :    -9.6335029 Eh     change       -0.2729460E-03 Eh
   gradient norm :     0.0117244 Eh/α   predicted    -0.3446050E-03 (  26.25%)
   displ. norm   :     0.2382930 α      lambda       -0.4309157E-03
   maximum displ.:     0.1145119 α      in ANC's #1, #8, #22, ...
 * RMSD in coord.:     1.7134016 α      energy gain  -0.4939609E+00 Eh

generating ANC from model Hessian ...
Using Lindh-Hessian (1995)
 Shifting diagonal of input Hessian by    1.0191589272113329E-002
 Lowest  eigenvalues of input Hessian
    0.010000    0.010075    0.010152    0.000000    0.000000    0.000000
    0.000000    0.000000    0.000000    0.010226    0.010233    0.010370
    0.010467    0.010815    0.011310    0.011447    0.016203    0.020745
 Highest eigenvalues
    0.584534    0.586828    0.784521    0.824971    1.398010    1.963298


........................................................................
.............................. CYCLE   21 ..............................
........................................................................
   1     -9.8492899 -0.984929E+01  0.381E-01    1.73       0.0  T
   2     -9.8492776  0.122833E-04  0.244E-01    1.74       1.0  T
   3     -9.8484329  0.844684E-03  0.234E-01    1.68       1.0  T
   4     -9.8492729 -0.840016E-03  0.363E-02    1.74       1.0  T
   5     -9.8492791 -0.614446E-05  0.324E-02    1.73       1.0  T
   6     -9.8492940 -0.149594E-04  0.121E-02    1.73       2.6  T
   7     -9.8492958 -0.177296E-05  0.221E-03    1.74      14.3  T
   8     -9.8492959 -0.388410E-07  0.784E-04    1.74      40.3  T
   9     -9.8492959  0.271800E-10  0.453E-04    1.74      69.8  T
     SCC iter.                  ...        0 min,  0.001 sec
     gradient                   ...        0 min,  0.000 sec
 * total energy  :    -9.6337328 Eh     change       -0.2298894E-03 Eh
   gradient norm :     0.0076934 Eh/α   predicted     0.0000000E+00 (-100.00%)
   displ. norm   :     0.0873011 α      lambda       -0.1576207E-03
   maximum displ.:     0.0574486 α      in ANC's #10, #11, #1, ...

........................................................................
.............................. CYCLE   22 ..............................
........................................................................
   1     -9.8490224 -0.984902E+01  0.143E-01    1.76       0.0  T
   2     -9.8490208  0.163506E-05  0.888E-02    1.76       1.0  T
   3     -9.8489062  0.114542E-03  0.780E-02    1.76       1.0  T
   4     -9.8490151 -0.108910E-03  0.219E-02    1.76       1.4  T
   5     -9.8490226 -0.744708E-05  0.806E-03    1.76       3.9  T
   6     -9.8490229 -0.286101E-06  0.597E-03    1.76       5.3  T
   7     -9.8490233 -0.395957E-06  0.128E-03    1.76      24.8  T
   8     -9.8490233 -0.171716E-07  0.459E-04    1.76      68.8  T
   9     -9.8490233 -0.878307E-09  0.239E-04    1.76     132.3  T
     SCC iter.                  ...        0 min,  0.001 sec
     gradient                   ...        0 min,  0.000 sec
 * total energy  :    -9.6338514 Eh     change       -0.1186605E-03 Eh
   gradient norm :     0.0026293 Eh/α   predicted    -0.7941042E-04 ( -33.08%)
   displ. norm   :     0.1678467 α      lambda       -0.1602979E-03
   maximum displ.:     0.1101890 α      in ANC's #10, #1, #6, ...

........................................................................
.............................. CYCLE   23 ..............................
........................................................................
   1     -9.8478082 -0.984781E+01  0.316E-01    1.79       0.0  T
   2     -9.8477997  0.854654E-05  0.198E-01    1.79       1.0  T
   3     -9.8471180  0.681750E-03  0.180E-01    1.80       1.0  T
   4     -9.8477798 -0.661813E-03  0.454E-02    1.78       1.0  T
   5     -9.8478094 -0.296681E-04  0.160E-02    1.79       2.0  T
   6     -9.8478085  0.939621E-06  0.147E-02    1.79       2.2  T
   7     -9.8478113 -0.281527E-05  0.323E-03    1.79       9.8  T
   8     -9.8478114 -0.115009E-06  0.118E-03    1.79      26.8  T
   9     -9.8478114 -0.213917E-07  0.388E-04    1.79      81.6  T
  10     -9.8478114 -0.122357E-08  0.856E-05    1.79     369.5  T
     SCC iter.                  ...        0 min,  0.002 sec
     gradient                   ...        0 min,  0.000 sec
 * total energy  :    -9.6339304 Eh     change       -0.7899781E-04 Eh
   gradient norm :     0.0065985 Eh/α   predicted    -0.8240762E-04 (   4.32%)
   displ. norm   :     0.0690071 α      lambda       -0.7414795E-04
   maximum displ.:     0.0418843 α      in ANC's #10, #3, #9, ...

........................................................................
.............................. CYCLE   24 ..............................
........................................................................
   1     -9.8486739 -0.984867E+01  0.115E-01    1.79       0.0  T
   2     -9.8486713  0.256389E-05  0.741E-02    1.79       1.0  T
   3     -9.8484311  0.240214E-03  0.102E-01    1.81       1.0  T
   4     -9.8486732 -0.242078E-03  0.114E-02    1.79       2.8  T
   5     -9.8486741 -0.925080E-06  0.621E-03    1.79       5.1  T
   6     -9.8486739  0.224634E-06  0.613E-03    1.79       5.2  T
   7     -9.8486744 -0.532301E-06  0.129E-03    1.79      24.5  T
   8     -9.8486744 -0.211385E-07  0.514E-04    1.79      61.5  T
   9     -9.8486744 -0.278137E-08  0.180E-04    1.79     175.7  T
     SCC iter.                  ...        0 min,  0.002 sec
     gradient                   ...        0 min,  0.000 sec
 * total energy  :    -9.6339869 Eh     change       -0.5646483E-04 Eh
   gradient norm :     0.0040858 Eh/α   predicted    -0.3724954E-04 ( -34.03%)
   displ. norm   :     0.1777108 α      lambda       -0.1086088E-03
   maximum displ.:     0.1144435 α      in ANC's #10, #3, #6, ...

........................................................................
.............................. CYCLE   25 ..............................
........................................................................
   1     -9.8492435 -0.984924E+01  0.287E-01    1.79       0.0  T
   2     -9.8492300  0.134753E-04  0.185E-01    1.78       1.0  T
   3     -9.8479321  0.129791E-02  0.240E-01    1.83       1.0  T
   4     -9.8492417 -0.130962E-02  0.237E-02    1.78       1.3  T
   5     -9.8492440 -0.222378E-05  0.161E-02    1.78       2.0  T
   6     -9.8492419  0.203315E-05  0.164E-02    1.78       1.9  T
   7     -9.8492457 -0.380754E-05  0.513E-03    1.78       6.2  T
   8     -9.8492462 -0.480411E-06  0.111E-03    1.78      28.4  T
   9     -9.8492462 -0.101826E-07  0.421E-04    1.78      75.0  T
  10     -9.8492462  0.114850E-08  0.312E-04    1.78     101.3  T
     SCC iter.                  ...        0 min,  0.002 sec
     gradient                   ...        0 min,  0.001 sec
 * total energy  :    -9.6340684 Eh     change       -0.8156668E-04 Eh
   gradient norm :     0.0020076 Eh/α   predicted    -0.5602135E-04 ( -31.32%)
   displ. norm   :     0.2436769 α      lambda       -0.9709231E-04
   maximum displ.:     0.1510635 α      in ANC's #10, #3, #6, ...

........................................................................
.............................. CYCLE   26 ..............................
........................................................................
   1     -9.8475104 -0.984751E+01  0.438E-01    1.77       0.0  T
   2     -9.8474985  0.118918E-04  0.275E-01    1.77       1.0  T
   3     -9.8462228  0.127572E-02  0.239E-01    1.82       1.0  T
   4     -9.8475090 -0.128623E-02  0.260E-02    1.77       1.2  T
   5     -9.8475074  0.157174E-05  0.221E-02    1.77       1.4  T
   6     -9.8475104 -0.301580E-05  0.133E-02    1.77       2.4  T
   7     -9.8475129 -0.241944E-05  0.508E-03    1.77       6.2  T
   8     -9.8475133 -0.419665E-06  0.139E-03    1.77      22.8  T
   9     -9.8475133 -0.151624E-07  0.587E-04    1.77      53.9  T
  10     -9.8475133  0.104410E-08  0.361E-04    1.77      87.7  T
     SCC iter.                  ...        0 min,  0.002 sec
     gradient                   ...        0 min,  0.000 sec
 * total energy  :    -9.6341256 Eh     change       -0.5715672E-04 Eh
   gradient norm :     0.0041018 Eh/α   predicted    -0.5142456E-04 ( -10.03%)
   displ. norm   :     0.1629948 α      lambda       -0.6801467E-04
   maximum displ.:     0.0964763 α      in ANC's #10, #3, #6, ...

........................................................................
.............................. CYCLE   27 ..............................
........................................................................
   1     -9.8485364 -0.984854E+01  0.272E-01    1.77       0.0  T
   2     -9.8485352  0.115925E-05  0.170E-01    1.77       1.0  T
   3     -9.8483607  0.174473E-03  0.940E-02    1.79       1.0  T
   4     -9.8485334 -0.172649E-03  0.202E-02    1.77       1.6  T
   5     -9.8485336 -0.192475E-06  0.173E-02    1.77       1.8  T
   6     -9.8485375 -0.391339E-05  0.394E-03    1.77       8.0  T
   7     -9.8485376 -0.147567E-06  0.157E-03    1.77      20.1  T
   8     -9.8485377 -0.287038E-07  0.568E-04    1.77      55.7  T
   9     -9.8485377  0.513648E-09  0.348E-04    1.77      90.9  T
     SCC iter.                  ...        0 min,  0.001 sec
     gradient                   ...        0 min,  0.001 sec
 * total energy  :    -9.6341636 Eh     change       -0.3796628E-04 Eh
   gradient norm :     0.0035121 Eh/α   predicted    -0.3491065E-04 (  -8.05%)
   displ. norm   :     0.1508648 α      lambda       -0.4390735E-04
   maximum displ.:     0.0878987 α      in ANC's #10, #3, #6, ...

........................................................................
.............................. CYCLE   28 ..............................
........................................................................
   1     -9.8494625 -0.984946E+01  0.239E-01    1.77       0.0  T
   2     -9.8494624  0.129657E-06  0.147E-01    1.77       1.0  T
   3     -9.8494308  0.316596E-04  0.438E-02    1.77       1.0  T
   4     -9.8494616 -0.308033E-04  0.129E-02    1.77       2.4  T
   5     -9.8494597  0.183888E-05  0.158E-02    1.77       2.0  T
   6     -9.8494617 -0.198518E-05  0.999E-03    1.78       3.2  T
   7     -9.8494632 -0.152139E-05  0.152E-03    1.77      20.8  T
   8     -9.8494633 -0.281825E-07  0.680E-04    1.77      46.5  T
   9     -9.8494633 -0.130178E-08  0.325E-04    1.77      97.4  T
     SCC iter.                  ...        0 min,  0.002 sec
     gradient                   ...        0 min,  0.000 sec
 * total energy  :    -9.6341880 Eh     change       -0.2445303E-04 Eh
   gradient norm :     0.0028027 Eh/α   predicted    -0.2245369E-04 (  -8.18%)
   displ. norm   :     0.2055262 α      lambda       -0.4846581E-04
   maximum displ.:     0.1197288 α      in ANC's #3, #10, #6, ...

........................................................................
.............................. CYCLE   29 ..............................
........................................................................
   1     -9.8490000 -0.984900E+01  0.344E-01    1.77       0.0  T
   2     -9.8489982  0.174457E-05  0.212E-01    1.78       1.0  T
   3     -9.8487818  0.216412E-03  0.101E-01    1.76       1.0  T
   4     -9.8489988 -0.216939E-03  0.194E-02    1.78       1.6  T
   5     -9.8489964  0.239841E-05  0.204E-02    1.77       1.5  T
   6     -9.8489993 -0.295777E-05  0.124E-02    1.78       2.6  T
   7     -9.8490011 -0.177849E-05  0.269E-03    1.78      11.8  T
   8     -9.8490012 -0.121271E-06  0.942E-04    1.78      33.6  T
   9     -9.8490012 -0.594166E-08  0.392E-04    1.78      80.6  T
     SCC iter.                  ...        0 min,  0.002 sec
     gradient                   ...        0 min,  0.000 sec
 * total energy  :    -9.6342121 Eh     change       -0.2406869E-04 Eh
   gradient norm :     0.0030383 Eh/α   predicted    -0.2525685E-04 (   4.94%)
   displ. norm   :     0.1019857 α      lambda       -0.3388647E-04
   maximum displ.:     0.0646413 α      in ANC's #3, #6, #10, ...

........................................................................
.............................. CYCLE   30 ..............................
........................................................................
   1     -9.8506359 -0.985064E+01  0.157E-01    1.78       0.0  T
   2     -9.8506336  0.220227E-05  0.975E-02    1.78       1.0  T
   3     -9.8504143  0.219375E-03  0.986E-02    1.76       1.0  T
   4     -9.8506350 -0.220767E-03  0.120E-02    1.78       2.6  T
   5     -9.8506356 -0.577866E-06  0.923E-03    1.78       3.4  T
   6     -9.8506360 -0.427085E-06  0.554E-03    1.78       5.7  T
   7     -9.8506364 -0.329941E-06  0.161E-03    1.78      19.7  T
   8     -9.8506364 -0.448135E-07  0.508E-04    1.78      62.2  T
   9     -9.8506364 -0.270743E-08  0.190E-04    1.78     166.3  T
     SCC iter.                  ...        0 min,  0.002 sec
     gradient                   ...        0 min,  0.000 sec
 * total energy  :    -9.6342287 Eh     change       -0.1658655E-04 Eh
   gradient norm :     0.0027976 Eh/α   predicted    -0.1711911E-04 (   3.21%)
   displ. norm   :     0.2417413 α      lambda       -0.4860745E-04
   maximum displ.:     0.1502394 α      in ANC's #3, #6, #10, ...

........................................................................
.............................. CYCLE   31 ..............................
........................................................................
   1     -9.8496344 -0.984963E+01  0.380E-01    1.77       0.0  T
   2     -9.8496327  0.171663E-05  0.236E-01    1.78       1.0  T
   3     -9.8493744  0.258291E-03  0.112E-01    1.76       1.0  T
   4     -9.8496341 -0.259694E-03  0.190E-02    1.78       1.7  T
   5     -9.8496302  0.391393E-05  0.216E-02    1.77       1.5  T
   6     -9.8496344 -0.421254E-05  0.988E-03    1.78       3.2  T
   7     -9.8496360 -0.157931E-05  0.192E-03    1.78      16.5  T
   8     -9.8496360 -0.275810E-07  0.102E-03    1.78      31.1  T
   9     -9.8496360 -0.600406E-08  0.494E-04    1.78      64.0  T
  10     -9.8496360 -0.105645E-08  0.127E-04    1.78     249.2  T
     SCC iter.                  ...        0 min,  0.002 sec
     gradient                   ...        0 min,  0.000 sec
 * total energy  :    -9.6342557 Eh     change       -0.2705619E-04 Eh
   gradient norm :     0.0031913 Eh/α   predicted    -0.2572324E-04 (  -4.93%)
   displ. norm   :     0.1571946 α      lambda       -0.4181883E-04
   maximum displ.:     0.0968502 α      in ANC's #3, #6, #5, ...

........................................................................
.............................. CYCLE   32 ..............................
........................................................................
   1     -9.8501742 -0.985017E+01  0.181E-01    1.78       0.0  T
   2     -9.8501706  0.356381E-05  0.112E-01    1.79       1.0  T
   3     -9.8498112  0.359482E-03  0.128E-01    1.76       1.0  T
   4     -9.8501747 -0.363528E-03  0.117E-02    1.79       2.7  T
   5     -9.8501728  0.186392E-05  0.135E-02    1.78       2.3  T
   6     -9.8501745 -0.165173E-05  0.666E-03    1.79       4.7  T
   7     -9.8501751 -0.616224E-06  0.136E-03    1.78      23.2  T
   8     -9.8501751 -0.249098E-07  0.636E-04    1.78      49.7  T
   9     -9.8501751 -0.295340E-08  0.272E-04    1.78     116.3  T
     SCC iter.                  ...        0 min,  0.001 sec
     gradient                   ...        0 min,  0.001 sec
 * total energy  :    -9.6342847 Eh     change       -0.2899358E-04 Eh
   gradient norm :     0.0033601 Eh/α   predicted    -0.2142536E-04 ( -26.10%)
   displ. norm   :     0.2714920 α      lambda       -0.6348206E-04
   maximum displ.:     0.1692641 α      in ANC's #3, #6, #9, ...

........................................................................
.............................. CYCLE   33 ..............................
........................................................................
   1     -9.8496807 -0.984968E+01  0.342E-01    1.78       0.0  T
   2     -9.8496686  0.120252E-04  0.212E-01    1.78       1.0  T
   3     -9.8484426  0.122607E-02  0.234E-01    1.74       1.0  T
   4     -9.8496808 -0.123828E-02  0.216E-02    1.78       1.5  T
   5     -9.8496759  0.496191E-05  0.249E-02    1.77       1.3  T
   6     -9.8496802 -0.428187E-05  0.133E-02    1.78       2.4  T
   7     -9.8496830 -0.282778E-05  0.391E-03    1.78       8.1  T
   8     -9.8496833 -0.304568E-06  0.119E-03    1.78      26.6  T
   9     -9.8496833  0.174657E-07  0.130E-03    1.78      24.3  T
  10     -9.8496833 -0.235417E-07  0.366E-04    1.78      86.3  T
  11     -9.8496833 -0.284512E-08  0.605E-05    1.78     522.9  T
     SCC iter.                  ...        0 min,  0.002 sec
     gradient                   ...        0 min,  0.000 sec
 * total energy  :    -9.6343344 Eh     change       -0.4966200E-04 Eh
   gradient norm :     0.0023098 Eh/α   predicted    -0.3408187E-04 ( -31.37%)
   displ. norm   :     0.3302776 α      lambda       -0.8651520E-04
   maximum displ.:     0.1923562 α      in ANC's #9, #3, #6, ...

........................................................................
.............................. CYCLE   34 ..............................
........................................................................
   1     -9.8508381 -0.985084E+01  0.292E-01    1.78       0.0  T
   2     -9.8508359  0.222151E-05  0.184E-01    1.78       1.0  T
   3     -9.8505742  0.261614E-03  0.117E-01    1.78       1.0  T
   4     -9.8508333 -0.259061E-03  0.237E-02    1.78       1.3  T
   5     -9.8508276  0.575048E-05  0.290E-02    1.77       1.1  T
   6     -9.8508386 -0.109963E-04  0.105E-02    1.78       3.0  T
   7     -9.8508399 -0.134051E-05  0.148E-03    1.78      21.3  T
   8     -9.8508399 -0.134106E-07  0.970E-04    1.78      32.6  T
   9     -9.8508399 -0.712999E-08  0.391E-04    1.78      81.0  T
     SCC iter.                  ...        0 min,  0.001 sec
     gradient                   ...        0 min,  0.000 sec
 * total energy  :    -9.6343972 Eh     change       -0.6282678E-04 Eh
   gradient norm :     0.0034270 Eh/α   predicted    -0.4797394E-04 ( -23.64%)
   displ. norm   :     0.5922815 α      lambda       -0.1138163E-03
   maximum displ.:     0.3509950 α      in ANC's #3, #9, #6, ...

........................................................................
.............................. CYCLE   35 ..............................
........................................................................
   1     -9.8464460 -0.984645E+01  0.659E-01    1.76       0.0  T
   2     -9.8464446  0.139552E-05  0.414E-01    1.75       1.0  T
   3     -9.8461062  0.338336E-03  0.150E-01    1.77       1.0  T
   4     -9.8464146 -0.308406E-03  0.488E-02    1.76       1.0  T
   5     -9.8463903  0.243593E-04  0.601E-02    1.74       1.0  T
   6     -9.8464370 -0.467273E-04  0.341E-02    1.76       1.0  T
   7     -9.8464531 -0.160685E-04  0.255E-03    1.76      12.4  T
   8     -9.8464531 -0.461338E-08  0.151E-03    1.76      21.0  T
   9     -9.8464531 -0.101262E-07  0.781E-04    1.76      40.5  T
  10     -9.8464531 -0.294608E-08  0.272E-04    1.76     116.5  T
     SCC iter.                  ...        0 min,  0.001 sec
     gradient                   ...        0 min,  0.001 sec
 * total energy  :    -9.6344058 Eh     change       -0.8611777E-05 Eh
   gradient norm :     0.0073726 Eh/α   predicted    -0.7686015E-04 ( 792.50%)
   displ. norm   :     0.1008566 α      lambda       -0.1823806E-03
   maximum displ.:     0.0678151 α      in ANC's #10, #3, #7, ...

........................................................................
.............................. CYCLE   36 ..............................
........................................................................
   1     -9.8497272 -0.984973E+01  0.180E-01    1.77       0.0  T
   2     -9.8497214  0.571766E-05  0.111E-01    1.77       1.0  T
   3     -9.8492433  0.478194E-03  0.152E-01    1.79       1.0  T
   4     -9.8497271 -0.483861E-03  0.119E-02    1.77       2.7  T
   5     -9.8497279 -0.810169E-06  0.820E-03    1.77       3.9  T
   6     -9.8497275  0.451609E-06  0.664E-03    1.77       4.8  T
   7     -9.8497282 -0.686656E-06  0.280E-03    1.77      11.3  T
   8     -9.8497283 -0.128967E-06  0.102E-03    1.77      31.1  T
   9     -9.8497283 -0.126457E-07  0.316E-04    1.77     100.2  T
  10     -9.8497283 -0.584228E-09  0.142E-04    1.77     222.3  T
     SCC iter.                  ...        0 min,  0.001 sec
     gradient                   ...        0 min,  0.001 sec
 * total energy  :    -9.6344491 Eh     change       -0.4328219E-04 Eh
   gradient norm :     0.0064254 Eh/α   predicted    -0.9211732E-04 ( 112.83%)
   displ. norm   :     0.1176710 α      lambda       -0.1079502E-03
   maximum displ.:     0.0621138 α      in ANC's #3, #5, #6, ...

........................................................................
.............................. CYCLE   37 ..............................
........................................................................
   1     -9.8514590 -0.985146E+01  0.240E-01    1.80       0.0  T
   2     -9.8514588  0.291124E-06  0.153E-01    1.80       1.0  T
   3     -9.8513749  0.838397E-04  0.704E-02    1.79       1.0  T
   4     -9.8514486 -0.736987E-04  0.257E-02    1.79       1.2  T
   5     -9.8514552 -0.662415E-05  0.197E-02    1.80       1.6  T
   6     -9.8514579 -0.267816E-05  0.140E-02    1.79       2.3  T
   7     -9.8514606 -0.264460E-05  0.191E-03    1.79      16.6  T
   8     -9.8514606 -0.450648E-07  0.787E-04    1.80      40.2  T
   9     -9.8514606 -0.152649E-08  0.358E-04    1.80      88.2  T
     SCC iter.                  ...        0 min,  0.001 sec
     gradient                   ...        0 min,  0.000 sec
 * total energy  :    -9.6344721 Eh     change       -0.2296224E-04 Eh
   gradient norm :     0.0056097 Eh/α   predicted    -0.5472365E-04 ( 138.32%)
   displ. norm   :     0.1321373 α      lambda       -0.6767438E-04
   maximum displ.:     0.0995804 α      in ANC's #3, #6, #9, ...

........................................................................
.............................. CYCLE   38 ..............................
........................................................................
   1     -9.8493917 -0.984939E+01  0.221E-01    1.77       0.0  T
   2     -9.8493883  0.338380E-05  0.142E-01    1.77       1.0  T
   3     -9.8490246  0.363694E-03  0.130E-01    1.81       1.0  T
   4     -9.8493815 -0.356856E-03  0.288E-02    1.77       1.1  T
   5     -9.8493926 -0.110850E-04  0.112E-02    1.77       2.8  T
   6     -9.8493901  0.251086E-05  0.137E-02    1.77       2.3  T
   7     -9.8493932 -0.314019E-05  0.192E-03    1.77      16.5  T
   8     -9.8493932 -0.301491E-07  0.931E-04    1.77      34.0  T
   9     -9.8493932 -0.579647E-08  0.469E-04    1.77      67.5  T
     SCC iter.                  ...        0 min,  0.001 sec
     gradient                   ...        0 min,  0.001 sec
 * total energy  :    -9.6345123 Eh     change       -0.4024695E-04 Eh
   gradient norm :     0.0025419 Eh/α   predicted    -0.3442647E-04 ( -14.46%)
   displ. norm   :     0.1710663 α      lambda       -0.3710203E-04
   maximum displ.:     0.1080690 α      in ANC's #3, #9, #6, ...

........................................................................
.............................. CYCLE   39 ..............................
........................................................................
   1     -9.8482128 -0.984821E+01  0.216E-01    1.77       0.0  T
   2     -9.8482075  0.533251E-05  0.136E-01    1.76       1.0  T
   3     -9.8477022  0.505250E-03  0.153E-01    1.80       1.0  T
   4     -9.8482089 -0.506642E-03  0.205E-02    1.77       1.5  T
   5     -9.8482131 -0.420314E-05  0.107E-02    1.76       2.9  T
   6     -9.8482116  0.145936E-05  0.117E-02    1.76       2.7  T
   7     -9.8482139 -0.226183E-05  0.266E-03    1.76      11.9  T
   8     -9.8482140 -0.102578E-06  0.738E-04    1.76      42.9  T
   9     -9.8482140 -0.277440E-08  0.322E-04    1.76      98.1  T
     SCC iter.                  ...        0 min,  0.002 sec
     gradient                   ...        0 min,  0.001 sec
 * total energy  :    -9.6345305 Eh     change       -0.1821029E-04 Eh
   gradient norm :     0.0032653 Eh/α   predicted    -0.1909469E-04 (   4.86%)
   displ. norm   :     0.0449028 α      lambda       -0.2661860E-04
   maximum displ.:     0.0239351 α      in ANC's #3, #11, #5, ...

........................................................................
.............................. CYCLE   40 ..............................
........................................................................
   1     -9.8486623 -0.984866E+01  0.131E-01    1.77       0.0  T
   2     -9.8486587  0.355537E-05  0.828E-02    1.76       1.0  T
   3     -9.8483422  0.316571E-03  0.118E-01    1.79       1.0  T
   4     -9.8486622 -0.320071E-03  0.956E-03    1.76       3.3  T
   5     -9.8486627 -0.490343E-06  0.643E-03    1.77       4.9  T
   6     -9.8486624  0.290784E-06  0.599E-03    1.76       5.3  T
   7     -9.8486630 -0.538434E-06  0.125E-03    1.77      25.2  T
   8     -9.8486630 -0.254732E-07  0.389E-04    1.77      81.4  T
   9     -9.8486630 -0.955550E-09  0.176E-04    1.77     179.6  T
     SCC iter.                  ...        0 min,  0.001 sec
     gradient                   ...        0 min,  0.000 sec
 * total energy  :    -9.6345489 Eh     change       -0.1839158E-04 Eh
   gradient norm :     0.0025693 Eh/α   predicted    -0.1333624E-04 ( -27.49%)
   displ. norm   :     0.1354086 α      lambda       -0.3137188E-04
   maximum displ.:     0.0950175 α      in ANC's #3, #9, #1, ...

........................................................................
.............................. CYCLE   41 ..............................
........................................................................
   1     -9.8489342 -0.984893E+01  0.247E-01    1.77       0.0  T
   2     -9.8489260  0.816996E-05  0.155E-01    1.76       1.0  T
   3     -9.8481550  0.771001E-03  0.184E-01    1.81       1.0  T
   4     -9.8489340 -0.778959E-03  0.163E-02    1.77       1.9  T
   5     -9.8489351 -0.112349E-05  0.107E-02    1.77       3.0  T
   6     -9.8489345  0.613725E-06  0.995E-03    1.77       3.2  T
   7     -9.8489359 -0.135560E-05  0.322E-03    1.77       9.8  T
   8     -9.8489360 -0.170340E-06  0.853E-04    1.77      37.1  T
   9     -9.8489360 -0.825253E-08  0.287E-04    1.77     110.0  T
     SCC iter.                  ...        0 min,  0.001 sec
     gradient                   ...        0 min,  0.000 sec
 * total energy  :    -9.6345672 Eh     change       -0.1828709E-04 Eh
   gradient norm :     0.0018918 Eh/α   predicted    -0.1597316E-04 ( -12.65%)
   displ. norm   :     0.0997716 α      lambda       -0.1514972E-04
   maximum displ.:     0.0796361 α      in ANC's #3, #1, #8, ...

........................................................................
.............................. CYCLE   42 ..............................
........................................................................
   1     -9.8496145 -0.984961E+01  0.250E-01    1.77       0.0  T
   2     -9.8496127  0.182923E-05  0.156E-01    1.77       1.0  T
   3     -9.8494199  0.192765E-03  0.916E-02    1.78       1.0  T
   4     -9.8496095 -0.189634E-03  0.208E-02    1.77       1.5  T
   5     -9.8496145 -0.497297E-05  0.108E-02    1.77       2.9  T
   6     -9.8496140  0.492787E-06  0.955E-03    1.77       3.3  T
   7     -9.8496153 -0.131593E-05  0.126E-03    1.77      25.0  T
   8     -9.8496153 -0.804473E-08  0.697E-04    1.77      45.4  T
   9     -9.8496153 -0.513654E-08  0.290E-04    1.77     108.9  T
     SCC iter.                  ...        0 min,  0.002 sec
     gradient                   ...        0 min,  0.000 sec
 * total energy  :    -9.6345832 Eh     change       -0.1601820E-04 Eh
   gradient norm :     0.0017249 Eh/α   predicted    -0.7610156E-05 ( -52.49%)
   displ. norm   :     0.3285462 α      lambda       -0.2963369E-04
   maximum displ.:     0.2664370 α      in ANC's #3, #6, #1, ...
 * RMSD in coord.:     0.9736998 α      energy gain  -0.1080359E-02 Eh

generating ANC from model Hessian ...
Using Lindh-Hessian (1995)
 Shifting diagonal of input Hessian by    1.0127877702523826E-002
 Lowest  eigenvalues of input Hessian
    0.010000    0.010078    0.010110    0.000000    0.000000    0.000000
    0.000000    0.000000    0.000000    0.010164    0.010219    0.010237
    0.010284    0.010646    0.011191    0.011554    0.016338    0.021109
 Highest eigenvalues
    0.565932    0.572554    0.777049    0.821105    1.401433    1.955896


........................................................................
.............................. CYCLE   43 ..............................
........................................................................
   1     -9.8474823 -0.984748E+01  0.650E-01    1.77       0.0  T
   2     -9.8474780  0.428419E-05  0.399E-01    1.76       1.0  T
   3     -9.8470868  0.391166E-03  0.144E-01    1.77       1.0  T
   4     -9.8474507 -0.363935E-03  0.496E-02    1.77       1.0  T
   5     -9.8474845 -0.337894E-04  0.198E-02    1.77       1.6  T
   6     -9.8474732  0.112983E-04  0.291E-02    1.76       1.1  T
   7     -9.8474876 -0.143987E-04  0.313E-03    1.77      10.1  T
   8     -9.8474877 -0.467797E-07  0.168E-03    1.77      18.9  T
   9     -9.8474877 -0.258184E-07  0.622E-04    1.77      50.8  T
  10     -9.8474877 -0.179307E-09  0.120E-04    1.77     263.5  T
     SCC iter.                  ...        0 min,  0.002 sec
     gradient                   ...        0 min,  0.000 sec
 * total energy  :    -9.6346050 Eh     change       -0.2179242E-04 Eh
   gradient norm :     0.0034861 Eh/α   predicted     0.0000000E+00 (-100.00%)
   displ. norm   :     0.0543129 α      lambda       -0.6045628E-04
   maximum displ.:     0.0333728 α      in ANC's #11, #6, #10, ...

........................................................................
.............................. CYCLE   44 ..............................
........................................................................
   1     -9.8492337 -0.984923E+01  0.127E-01    1.78       0.0  T
   2     -9.8492322  0.149092E-05  0.802E-02    1.77       1.0  T
   3     -9.8491453  0.869212E-04  0.753E-02    1.78       1.0  T
   4     -9.8492337 -0.884370E-04  0.966E-03    1.77       3.3  T
   5     -9.8492344 -0.697266E-06  0.532E-03    1.78       5.9  T
   6     -9.8492327  0.167245E-05  0.893E-03    1.77       3.5  T
   7     -9.8492345 -0.180090E-05  0.885E-04    1.77      35.7  T
   8     -9.8492346 -0.493935E-08  0.460E-04    1.77      68.8  T
   9     -9.8492346 -0.833570E-09  0.200E-04    1.77     158.3  T
     SCC iter.                  ...        0 min,  0.002 sec
     gradient                   ...        0 min,  0.001 sec
 * total energy  :    -9.6346473 Eh     change       -0.4231212E-04 Eh
   gradient norm :     0.0009416 Eh/α   predicted    -0.3031597E-04 ( -28.35%)
   displ. norm   :     0.1162715 α      lambda       -0.3969729E-04
   maximum displ.:     0.0696020 α      in ANC's #6, #10, #11, ...

........................................................................
.............................. CYCLE   45 ..............................
........................................................................
   1     -9.8503954 -0.985040E+01  0.252E-01    1.78       0.0  T
   2     -9.8503946  0.790150E-06  0.156E-01    1.78       1.0  T
   3     -9.8502953  0.993556E-04  0.758E-02    1.79       1.0  T
   4     -9.8503939 -0.986767E-04  0.185E-02    1.78       1.7  T
   5     -9.8503901  0.384899E-05  0.211E-02    1.78       1.5  T
   6     -9.8503949 -0.477711E-05  0.111E-02    1.79       2.8  T
   7     -9.8503970 -0.213322E-05  0.168E-03    1.78      18.8  T
   8     -9.8503970 -0.239869E-07  0.952E-04    1.78      33.2  T
   9     -9.8503970 -0.285260E-08  0.415E-04    1.78      76.3  T
     SCC iter.                  ...        0 min,  0.001 sec
     gradient                   ...        0 min,  0.001 sec
 * total energy  :    -9.6346772 Eh     change       -0.2990640E-04 Eh
   gradient norm :     0.0020129 Eh/α   predicted    -0.1996986E-04 ( -33.23%)
   displ. norm   :     0.0576220 α      lambda       -0.2237442E-04
   maximum displ.:     0.0329414 α      in ANC's #6, #9, #10, ...

........................................................................
.............................. CYCLE   46 ..............................
........................................................................
   1     -9.8501024 -0.985010E+01  0.109E-01    1.78       0.0  T
   2     -9.8501024 -0.268634E-08  0.678E-02    1.78       1.0  T
   3     -9.8500951  0.732216E-05  0.231E-02    1.78       1.4  T
   4     -9.8501020 -0.699273E-05  0.766E-03    1.78       4.1  T
   5     -9.8500998  0.221494E-05  0.114E-02    1.78       2.8  T
   6     -9.8501024 -0.255416E-05  0.367E-03    1.78       8.6  T
   7     -9.8501026 -0.188959E-06  0.457E-04    1.78      69.2  T
   8     -9.8501026 -0.697741E-09  0.296E-04    1.78     106.8  T
     SCC iter.                  ...        0 min,  0.002 sec
     gradient                   ...        0 min,  0.001 sec
 * total energy  :    -9.6346953 Eh     change       -0.1808120E-04 Eh
   gradient norm :     0.0013597 Eh/α   predicted    -0.1122586E-04 ( -37.91%)
   displ. norm   :     0.2040800 α      lambda       -0.4587854E-04
   maximum displ.:     0.1126979 α      in ANC's #6, #9, #10, ...

........................................................................
.............................. CYCLE   47 ..............................
........................................................................
   1     -9.8489598 -0.984896E+01  0.455E-01    1.78       0.0  T
   2     -9.8489577  0.215712E-05  0.286E-01    1.79       1.0  T
   3     -9.8487123  0.245403E-03  0.130E-01    1.76       1.0  T
   4     -9.8489568 -0.244527E-03  0.292E-02    1.79       1.1  T
   5     -9.8489262  0.305855E-04  0.422E-02    1.78       1.0  T
   6     -9.8489568 -0.305997E-04  0.206E-02    1.78       1.5  T
   7     -9.8489634 -0.663587E-05  0.138E-03    1.78      22.9  T
   8     -9.8489635 -0.287850E-08  0.746E-04    1.78      42.4  T
   9     -9.8489635 -0.266285E-09  0.462E-04    1.78      68.4  T
     SCC iter.                  ...        0 min,  0.001 sec
     gradient                   ...        0 min,  0.001 sec
 * total energy  :    -9.6347428 Eh     change       -0.4743104E-04 Eh
   gradient norm :     0.0020983 Eh/α   predicted    -0.2336545E-04 ( -50.74%)
   displ. norm   :     0.1862815 α      lambda       -0.5063634E-04
   maximum displ.:     0.1116610 α      in ANC's #6, #9, #5, ...

........................................................................
.............................. CYCLE   48 ..............................
........................................................................
   1     -9.8477712 -0.984777E+01  0.505E-01    1.78       0.0  T
   2     -9.8477714 -0.190819E-06  0.319E-01    1.79       1.0  T
   3     -9.8476371  0.134252E-03  0.955E-02    1.76       1.0  T
   4     -9.8477627 -0.125572E-03  0.340E-02    1.79       1.0  T
   5     -9.8477218  0.408733E-04  0.500E-02    1.78       1.0  T
   6     -9.8477730 -0.511300E-04  0.112E-02    1.78       2.8  T
   7     -9.8477746 -0.164369E-05  0.155E-03    1.79      20.5  T
   8     -9.8477746 -0.131343E-07  0.914E-04    1.78      34.6  T
   9     -9.8477746 -0.403066E-08  0.468E-04    1.78      67.6  T
     SCC iter.                  ...        0 min,  0.001 sec
     gradient                   ...        0 min,  0.000 sec
 * total energy  :    -9.6347771 Eh     change       -0.3435905E-04 Eh
   gradient norm :     0.0036327 Eh/α   predicted    -0.2619919E-04 ( -23.75%)
   displ. norm   :     0.2329070 α      lambda       -0.6898197E-04
   maximum displ.:     0.1252993 α      in ANC's #6, #9, #5, ...

........................................................................
.............................. CYCLE   49 ..............................
........................................................................
   1     -9.8478038 -0.984780E+01  0.653E-01    1.78       0.0  T
   2     -9.8478037  0.838105E-07  0.413E-01    1.79       1.0  T
   3     -9.8475682  0.235519E-03  0.128E-01    1.76       1.0  T
   4     -9.8477930 -0.224806E-03  0.422E-02    1.79       1.0  T
   5     -9.8477176  0.753317E-04  0.647E-02    1.78       1.0  T
[...]
........................................................................
   1     -9.8409421 -0.984094E+01  0.515E-01    1.66       0.0  T
   2     -9.8409415  0.531466E-06  0.341E-01    1.65       1.0  T
   3     -9.8405228  0.418762E-03  0.137E-01    1.67       1.0  T
   4     -9.8409427 -0.419907E-03  0.280E-02    1.65       1.1  T
   5     -9.8409399  0.275959E-05  0.224E-02    1.66       1.4  T
   6     -9.8409455 -0.553952E-05  0.932E-03    1.65       3.4  T
   7     -9.8409469 -0.148068E-05  0.189E-03    1.66      16.7  T
   8     -9.8409470 -0.176215E-07  0.108E-03    1.66      29.3  T
   9     -9.8409470 -0.102262E-07  0.572E-04    1.66      55.3  T
  10     -9.8409470 -0.166660E-08  0.822E-05    1.66     384.6  T
     SCC iter.                  ...        0 min,  0.001 sec
     gradient                   ...        0 min,  0.000 sec
 * total energy  :    -9.6378063 Eh     change       -0.1258227E-04 Eh
   gradient norm :     0.0011151 Eh/α   predicted    -0.5388922E-05 ( -57.17%)
   displ. norm   :     0.1848010 α      lambda       -0.1431740E-04
   maximum displ.:     0.1432343 α      in ANC's #8, #2, #5, ...

........................................................................
.............................. CYCLE  129 ..............................
........................................................................
   1     -9.8414445 -0.984144E+01  0.712E-01    1.66       0.0  T
   2     -9.8414395  0.501727E-05  0.472E-01    1.66       1.0  T
   3     -9.8401241  0.131535E-02  0.246E-01    1.69       1.0  T
   4     -9.8414465 -0.132233E-02  0.383E-02    1.66       1.0  T
   5     -9.8414271  0.193861E-04  0.425E-02    1.66       1.0  T
   6     -9.8414490 -0.219551E-04  0.173E-02    1.66       1.8  T
   7     -9.8414543 -0.522771E-05  0.349E-03    1.66       9.1  T
   8     -9.8414544 -0.119516E-06  0.151E-03    1.66      20.9  T
   9     -9.8414544 -0.185592E-07  0.784E-04    1.66      40.3  T
  10     -9.8414544 -0.166725E-08  0.356E-04    1.66      88.9  T
     SCC iter.                  ...        0 min,  0.001 sec
     gradient                   ...        0 min,  0.000 sec
 * total energy  :    -9.6378187 Eh     change       -0.1245972E-04 Eh
   gradient norm :     0.0010791 Eh/α   predicted    -0.7267531E-05 ( -41.67%)
   displ. norm   :     0.0674018 α      lambda       -0.3635351E-05
   maximum displ.:     0.0471795 α      in ANC's #8, #2, #6, ...

........................................................................
.............................. CYCLE  130 ..............................
........................................................................
   1     -9.8412803 -0.984128E+01  0.254E-01    1.66       0.0  T
   2     -9.8412806 -0.255150E-06  0.168E-01    1.66       1.0  T
   3     -9.8412330  0.475949E-04  0.505E-02    1.66       1.0  T
   4     -9.8412773 -0.442924E-04  0.180E-02    1.65       1.8  T
   5     -9.8412735  0.384016E-05  0.198E-02    1.66       1.6  T
   6     -9.8412813 -0.788434E-05  0.396E-03    1.66       8.0  T
   7     -9.8412815 -0.191102E-06  0.953E-04    1.66      33.2  T
   8     -9.8412815 -0.525334E-08  0.459E-04    1.66      68.9  T
     SCC iter.                  ...        0 min,  0.001 sec
     gradient                   ...        0 min,  0.000 sec
 * total energy  :    -9.6378223 Eh     change       -0.3519125E-05 Eh
   gradient norm :     0.0007887 Eh/α   predicted    -0.1822772E-05 ( -48.20%)
   displ. norm   :     0.0744203 α      lambda       -0.4448341E-05
   maximum displ.:     0.0561262 α      in ANC's #8, #2, #6, ...

   *** GEOMETRY OPTIMIZATION CONVERGED AFTER 130 ITERATIONS ***

------------------------------------------------------------------------
 total energy gain   :        -0.4982803 Eh     -312.6756 kcal/mol
 total RMSD          :         3.6231705 a0        1.9173 Å
 total power (kW/mol):       -10.0633442 (step)-3912.3003 (real)
------------------------------------------------------------------------

 ANCopt (total)                0 d,  0 h,  0 min,  0.334 sec
 optimizer setup                ...        0 min,  0.000 sec (  0.007%)
 model hessian                  ...        0 min,  0.001 sec (  0.359%)
 ANC generation                 ...        0 min,  0.000 sec (  0.114%)
 coordinate transformation      ...        0 min,  0.000 sec (  0.093%)
 single point calculation       ...        0 min,  0.322 sec ( 96.382%)
 optimization log               ...        0 min,  0.003 sec (  0.974%)
 hessian update                 ...        0 min,  0.003 sec (  0.851%)
 rational function              ...        0 min,  0.002 sec (  0.633%)

================
 final structure:
================
10
 xtb: 6.5.1 (conda-forge)
Be          -0.01521124420532        0.70273051058085        1.84331365757010
B            0.88587440401338        0.99396607303925        3.26550671655742
B            0.39107645863252       -0.99635583689321        1.76807649078552
C            1.17636240663328       -0.37915337601904        3.13739205090748
C            1.23585168672326       -1.69786832703681        2.72271969221061
H            1.72721744861687       -2.56962104631065        3.10606955754785
H            2.59735810858518        2.04707930082650        3.87173706554369
H            3.26968534701459        2.40162344218570        4.17196182190598
H            0.02620968204530        1.13143670941947        5.28370401200134
H           -0.20642429870680        1.16709955162563        6.05701893428069

 Bond Distances (Angstroems)
 ---------------------------
Be1-B2=1.7086        Be1-B3=1.7486        Be1-C4=2.0652        B2-Be1=1.7086        B2-C4=1.4093         B3-Be1=1.7486        
B3-C4=1.6949         B3-C5=1.4550         C4-Be1=2.0652        C4-B2=1.4093         C4-B3=1.6949         C4-C5=1.3837         
C5-B3=1.4550         C5-C4=1.3837         C5-H6=1.0716         H6-C5=1.0716         H7-H8=0.8172         H8-H7=0.8172         
H9-H10=0.8083        H10-H9=0.8083        
 H  H  Rav=0.8128 sigma=0.0044  Rmin=0.8083  Rmax=0.8172     2
 B  Be Rav=1.7286 sigma=0.0200  Rmin=1.7086  Rmax=1.7486     2
 C  H  Rav=1.0716 sigma=0.0000  Rmin=1.0716  Rmax=1.0716     1
 C  Be Rav=2.0652 sigma=0.0000  Rmin=2.0652  Rmax=2.0652     1
 C  B  Rav=1.5198 sigma=0.1252  Rmin=1.4093  Rmax=1.6949     3
 C  C  Rav=1.3837 sigma=0.0000  Rmin=1.3837  Rmax=1.3837     1

 selected bond angles (degree)
 --------------------
B3-Be1-B2= 94.53               C4-Be1-B2= 42.56               C4-Be1-B3= 51.97               C4-B2-Be1= 82.36               
C4-B3-Be1= 73.68               C5-B3-Be1=125.11               C5-B3-C4= 51.43                B2-C4-Be1= 55.08               
B3-C4-Be1= 54.35               B3-C4-B2=109.44                C5-C4-Be1=109.65               C5-C4-B2=164.73                
C5-C4-B3= 55.30                C4-C5-B3= 73.27                H6-C5-B3=153.27                H6-C5-C4=133.46                

 selected dihedral angles (degree)
 ---------------------------------
C4-B2-Be1-B3=  0.28           C4-B3-Be1-B2=359.76           C5-B3-Be1-B2=  0.07           C5-B3-Be1-C4=  0.32           
B2-C4-Be1-B3=180.36           B3-C4-Be1-B2=179.64           C5-C4-Be1-B2=179.36           C5-C4-Be1-B3=359.71           
B3-C4-B2-Be1=359.69           C5-C4-B2-Be1=357.70           Be1-C4-B3-C5=180.33           B2-C4-B3-Be1=  0.31           
B2-C4-B3-C5=180.64            C5-C4-B3-Be1=179.67           C4-C5-B3-Be1=359.61           H6-C5-B3-Be1=179.34           
H6-C5-B3-C4=179.73            B3-C5-C4-Be1=  0.28           B3-C5-C4-B2=  2.29            H6-C5-C4-Be1=180.45           
H6-C5-C4-B2=182.46            H6-C5-C4-B3=180.17            

 CMA Distance (Angstroems)
 ---------------------------
R(CMA):  1.3783
           -------------------------------------------------
          |                Final Singlepoint                |
           -------------------------------------------------

          ...................................................
          :                      SETUP                      :
          :.................................................:
          :  # basis functions                  25          :
          :  # atomic orbitals                  25          :
          :  # shells                           15          :
          :  # electrons                        21          :
          :  max. iterations                   250          :
          :  Hamiltonian                  GFN2-xTB          :
          :  restarted?                      false          :
          :  GBSA solvation                  false          :
          :  PC potential                    false          :
          :  electronic temp.          300.0000000     K    :
          :  accuracy                    1.0000000          :
          :  -> integral cutoff          0.2500000E+02      :
          :  -> integral neglect         0.1000000E-07      :
          :  -> SCF convergence          0.1000000E-05 Eh   :
          :  -> wf. convergence          0.1000000E-03 e    :
          :  Broyden damping             0.4000000          :
          ...................................................

 iter      E             dE          RMSdq      gap      omega  full diag
   1     -9.8412815 -0.984128E+01  0.305E-04    1.66       0.0  T
   2     -9.8412815  0.712443E-08  0.585E-04    1.66      54.1  T
   3     -9.8412815 -0.736211E-08  0.231E-04    1.66     136.7  T

   *** convergence criteria satisfied after 3 iterations ***

         #    Occupation            Energy/Eh            Energy/eV
      -------------------------------------------------------------
         1        2.0000           -0.5491704             -14.9437
       ...           ...                  ...                  ...
         5        2.0000           -0.4299595             -11.6998
         6        2.0000           -0.4043918             -11.0041
         7        2.0000           -0.3767017             -10.2506
         8        2.0000           -0.3439451              -9.3592
         9        2.0000           -0.3217927              -8.7564
        10        2.0000           -0.2916755              -7.9369
        11        1.0000           -0.2541245              -6.9151 (HOMO)
        12                         -0.1932618              -5.2589 (LUMO)
        13                         -0.1892627              -5.1501
        14                         -0.1481154              -4.0304
        15                         -0.0883633              -2.4045
        16                         -0.0237264              -0.6456
       ...                                ...                  ...
        25                          1.3473822              36.6641
      -------------------------------------------------------------
                  HL-Gap            0.0608627 Eh            1.6562 eV
             Fermi-level           -0.2482966 Eh           -6.7565 eV

 SCC (total)                   0 d,  0 h,  0 min,  0.001 sec
 SCC setup                      ...        0 min,  0.000 sec (  3.645%)
 Dispersion                     ...        0 min,  0.000 sec (  3.563%)
 classical contributions        ...        0 min,  0.000 sec (  5.903%)
 integral evaluation            ...        0 min,  0.000 sec (  9.031%)
 iterations                     ...        0 min,  0.000 sec ( 27.196%)
 molecular gradient             ...        0 min,  0.000 sec ( 41.508%)
 printout                       ...        0 min,  0.000 sec (  8.099%)

         :::::::::::::::::::::::::::::::::::::::::::::::::::::
         ::                     SUMMARY                     ::
         :::::::::::::::::::::::::::::::::::::::::::::::::::::
         :: total energy              -9.637822264020 Eh    ::
         :: gradient norm              0.000790406871 Eh/a0 ::
         :: HOMO-LUMO gap              1.656157335269 eV    ::
         ::.................................................::
         :: SCC energy                -9.841281537795 Eh    ::
         :: -> isotropic ES           -0.010844907556 Eh    ::
         :: -> anisotropic ES          0.010625406477 Eh    ::
         :: -> anisotropic XC         -0.005042978237 Eh    ::
         :: -> dispersion             -0.004383713907 Eh    ::
         :: repulsion energy           0.203450947376 Eh    ::
         :: add. restraining           0.000000000000 Eh    ::
         :: total charge               0.000000000000 e     ::
         :::::::::::::::::::::::::::::::::::::::::::::::::::::

           -------------------------------------------------
          |                Property Printout                |
           -------------------------------------------------

    * Orbital Energies and Occupations

         #    Occupation            Energy/Eh            Energy/eV
      -------------------------------------------------------------
         1        2.0000           -0.5491704             -14.9437
         2        2.0000           -0.4842098             -13.1760
         3        2.0000           -0.4538251             -12.3492
         4        2.0000           -0.4459750             -12.1356
         5        2.0000           -0.4299595             -11.6998
         6        2.0000           -0.4043918             -11.0041
         7        2.0000           -0.3767017             -10.2506
         8        2.0000           -0.3439451              -9.3592
         9        2.0000           -0.3217927              -8.7564
        10        2.0000           -0.2916755              -7.9369
        11        1.0000           -0.2541245              -6.9151 (HOMO)
        12                         -0.1932618              -5.2589 (LUMO)
        13                         -0.1892627              -5.1501
        14                         -0.1481154              -4.0304
        15                         -0.0883633              -2.4045
        16                         -0.0237264              -0.6456
        17                         -0.0029096              -0.0792
        18                          0.1623833               4.4187
        19                          0.1741481               4.7388
        20                          0.1830403               4.9808
        21                          0.3291078               8.9555
        22                          0.3890337              10.5861
       ...                                ...                  ...
        25                          1.3473822              36.6641
      -------------------------------------------------------------
                  HL-Gap            0.0608627 Eh            1.6562 eV
             Fermi-level           -0.2482966 Eh           -6.7565 eV

     #   Z          covCN         q      C6AA      α(0)
     1   4 Be       2.504     0.375    14.933     8.921
     2   5 B        1.823    -0.004    44.737    14.090
     3   5 B        2.690     0.035    21.075     7.709
     4   6 C        3.443    -0.202    27.614     7.972
     5   6 C        2.815    -0.131    31.339     9.172
     6   1 H        0.926    -0.019     3.401     2.884
     7   1 H        0.660     0.007     3.264     2.896
     8   1 H        0.660    -0.034     4.127     3.257
     9   1 H        0.698     0.003     3.212     2.849
    10   1 H        0.698    -0.030     3.896     3.138

 Mol. C6AA /au·bohr⁶  :       1223.835846
 Mol. C8AA /au·bohr⁸  :      34374.317295
 Mol. α(0) /au        :         62.888178


Wiberg/Mayer (AO) data.
largest (>0.10) Wiberg bond orders for each atom

 ---------------------------------------------------------------------------
     #   Z sym  total        # sym  WBO       # sym  WBO       # sym  WBO
 ---------------------------------------------------------------------------
     1   4 Be   2.045 --     2 B    0.962     3 B    0.928     4 C    0.109
     2   5 B    2.980 --     4 C    1.610     1 Be   0.962     3 B    0.225
     3   5 B    3.137 --     5 C    1.326     1 Be   0.928     4 C    0.636
                             2 B    0.225
     4   6 C    3.746 --     2 B    1.610     5 C    1.347     3 B    0.636
                             1 Be   0.109
     5   6 C    3.680 --     4 C    1.347     3 B    1.326     6 H    0.969
     6   1 H    0.999 --     5 C    0.969
     7   1 H    0.999 --     8 H    0.923
     8   1 H    0.984 --     7 H    0.923
     9   1 H    0.999 --    10 H    0.939
    10   1 H    0.980 --     9 H    0.939
 ---------------------------------------------------------------------------

Topologies differ in total number of bonds
Writing topology from bond orders to xtbtopo.mol

molecular dipole:
                 x           y           z       tot (Debye)
 q only:       -0.974       0.891      -1.117
   full:       -0.571       0.524      -0.683       2.625
molecular quadrupole (traceless):
                xx          xy          yy          xz          yz          zz
 q only:        3.792       1.078       5.587      -8.815       4.941      -9.379
  q+dip:        2.165      -1.728       4.280      -3.716       0.401      -6.445
   full:        5.004      -1.463       1.071      -5.748      -2.103      -6.076

           -------------------------------------------------
          |                Geometry Summary                 |
           -------------------------------------------------

      molecular mass/u    :       59.6954147
   center of mass at/Å    :        0.8394858      -0.2417015       2.7486842
  moments of inertia/u·Å² :        0.5734695E+02   0.1013092E+03   0.1317227E+03
rotational constants/cm⁻¹ :        0.2939586E+00   0.1663978E+00   0.1279782E+00

 * 6 selected distances

     #   Z          #   Z                                           value/Å
     1   4 Be       2   5 B                                       1.7086273
     1   4 Be       3   5 B                                       1.7486067 (max)
Note: The following floating-point exceptions are signalling: IEEE_UNDERFLOW_FLAG
normal termination of xtb
     2   5 B        4   6 C                                       1.4093453
     3   5 B        5   6 C                                       1.4550289
     4   6 C        5   6 C                                       1.3836552
     5   6 C        6   1 H                                       1.0716111 (min)

 * 4 distinct bonds (by element types)

   Z      Z             #   av. dist./Å        max./Å        min./Å
   4 Be   5 B           2     1.7286170     1.7486067     1.7086273
   1 H    6 C           1     1.0716111     1.0716111     1.0716111
   5 B    6 C           2     1.4321871     1.4550289     1.4093453
   6 C    6 C           1     1.3836552     1.3836552     1.3836552


optimized geometry written to: xtbopt.xyz


           -------------------------------------------------
          | TOTAL ENERGY               -9.637822264020 Eh   |
          | GRADIENT NORM               0.000790406871 Eh/α |
          | HOMO-LUMO GAP               1.656157335269 eV   |
           -------------------------------------------------
########################################################################
[WARNING] Runtime exception occurred
-3- restart_readRestart: Dimension missmatch in restart file.
-2- restart_readRestart: Multiplicity missmatch in restart file.
-1- restart_readRestart: Number of electron missmatch in restart file.
########################################################################

------------------------------------------------------------------------
 * finished run on 2025/06/07 at 03:27:41.282     
------------------------------------------------------------------------
 total:
 * wall-time:     0 d,  0 h,  0 min,  0.352 sec
 *  cpu-time:     0 d,  0 h,  0 min,  4.802 sec
 * ratio c/w:    13.658 speedup
 SCF:
 * wall-time:     0 d,  0 h,  0 min,  0.013 sec
 *  cpu-time:     0 d,  0 h,  0 min,  0.151 sec
 * ratio c/w:    11.842 speedup
 ANC optimizer:
 * wall-time:     0 d,  0 h,  0 min,  0.336 sec
 *  cpu-time:     0 d,  0 h,  0 min,  4.622 sec
 * ratio c/w:    13.756 speedup

