      -----------------------------------------------------------      
     |                   =====================                   |     
     |                           x T B                           |     
     |                   =====================                   |     
     |                         S. Grimme                         |     
     |          Mulliken Center for Theoretical Chemistry        |     
     |                    University of Bonn                     |     
      -----------------------------------------------------------      

   * xtb version 6.5.1 (conda-forge) compiled by 'runner@Mac-1657629245115.local' on 2022-07-12

   xtb is free software: you can redistribute it and/or modify it under
   the terms of the GNU Lesser General Public License as published by
   the Free Software Foundation, either version 3 of the License, or
   (at your option) any later version.
   
   xtb is distributed in the hope that it will be useful,
   but WITHOUT ANY WARRANTY; without even the implied warranty of
   MERCHANTABILITY or FITNESS FOR A PARTICULAR PURPOSE.  See the
   GNU Lesser General Public License for more details.
   
   Cite this work as:
   * C. Bannwarth, E. Caldeweyher, S. Ehlert, A. Hansen, P. Pracht,
     J. Seibert, S. Spicher, S. Grimme, WIREs Comput. Mol. Sci., 2020, 11,
     e01493. DOI: 10.1002/wcms.1493
   
   for GFN2-xTB:
   * C. Bannwarth, S. Ehlert and S. Grimme., J. Chem. Theory Comput., 2019,
     15, 1652-1671. DOI: 10.1021/acs.jctc.8b01176
   for GFN1-xTB:
   * S. Grimme, C. Bannwarth, P. Shushkov, J. Chem. Theory Comput., 2017,
     13, 1989-2009. DOI: 10.1021/acs.jctc.7b00118
   for GFN0-xTB:
   * P. Pracht, E. Caldeweyher, S. Ehlert, S. Grimme, ChemRxiv, 2019, preprint.
     DOI: 10.26434/chemrxiv.8326202.v1
   for GFN-FF:
   * S. Spicher and S. Grimme, Angew. Chem. Int. Ed., 2020, 59, 15665-15673.
     DOI: 10.1002/anie.202004239
   
   for ALPB and GBSA implicit solvation:
   * S. Ehlert, M. Stahn, S. Spicher, S. Grimme, J. Chem. Theory Comput.,
     2021, 17, 4250-4261. DOI: 10.1021/acs.jctc.1c00471
   
   for DFT-D4:
   * E. Caldeweyher, C. Bannwarth and S. Grimme, J. Chem. Phys., 2017,
     147, 034112. DOI: 10.1063/1.4993215
   * E. Caldeweyher, S. Ehlert, A. Hansen, H. Neugebauer, S. Spicher,
     C. Bannwarth and S. Grimme, J. Chem. Phys., 2019, 150, 154122.
     DOI: 10.1063/1.5090222
   * E. Caldeweyher, J.-M. Mewes, S. Ehlert and S. Grimme, Phys. Chem. Chem. Phys.
     2020, 22, 8499-8512. DOI: 10.1039/D0CP00502A
   
   for sTDA-xTB:
   * S. Grimme and C. Bannwarth, J. Chem. Phys., 2016, 145, 054103.
     DOI: 10.1063/1.4959605
   
   in the mass-spec context:
   * V. Asgeirsson, C. Bauer and S. Grimme, Chem. Sci., 2017, 8, 4879.
     DOI: 10.1039/c7sc00601b
   * J. Koopman and S. Grimme, ACS Omega 2019, 4, 12, 15120-15133.
     DOI: 10.1021/acsomega.9b02011
   
   for metadynamics refer to:
   * S. Grimme, J. Chem. Theory Comput., 2019, 155, 2847-2862
     DOI: 10.1021/acs.jctc.9b00143
   
   for SPH calculations refer to:
   * S. Spicher and S. Grimme, J. Chem. Theory Comput., 2021, 17, 1701-1714
     DOI: 10.1021/acs.jctc.0c01306
   
   with help from (in alphabetical order)
   P. Atkinson, C. Bannwarth, F. Bohle, G. Brandenburg, E. Caldeweyher
   M. Checinski, S. Dohm, S. Ehlert, S. Ehrlich, I. Gerasimov, C. Hölzer
   A. Katbashev, J. Koopman, C. Lavigne, S. Lehtola, F. März, M. Müller,
   F. Musil, H. Neugebauer, J. Pisarek, C. Plett, P. Pracht, F. Pultar,
   J. Seibert, P. Shushkov, S. Spicher, M. Stahn, M. Steiner, T. Strunk,
   J. Stückrath, T. Rose, and J. Unsleber
   
 * started run on 2025/06/07 at 03:27:40.670     

           -------------------------------------------------
          |                Calculation Setup                |
           -------------------------------------------------

          program call               : xtb B2BeC2H3.xyz --gfn 2 --opt
          coordinate file            : B2BeC2H3.xyz
          omp threads                :                    16

   ID    Z sym.   atoms
    1    4 Be     1
    2    5 B      2, 3
    3    6 C      4, 5
    4    1 H      6-8

molecular fragmentation (1/2 indicates fragments):
11112222
# atoms in fragment 1/2:     4     4
 fragment masses (1/2) :       42.64       15.03
CMA distance (Bohr)    :   4.571
constraining FC (au)   :  0.0500

           -------------------------------------------------
          |                 G F N 2 - x T B                 |
           -------------------------------------------------

        Reference                      10.1021/acs.jctc.8b01176
      * Hamiltonian:
        H0-scaling (s, p, d)           1.850000    2.230000    2.230000
        zeta-weighting                 0.500000
      * Dispersion:
        s8                             2.700000
        a1                             0.520000
        a2                             5.000000
        s9                             5.000000
      * Repulsion:
        kExp                           1.500000    1.000000
        rExp                           1.000000
      * Coulomb:
        alpha                          2.000000
        third order                    shell-resolved
        anisotropic                    true
        a3                             3.000000
        a5                             4.000000
        cn-shift                       1.200000
        cn-exp                         4.000000
        max-rad                        5.000000


          ...................................................
          :                      SETUP                      :
          :.................................................:
          :  # basis functions                  23          :
          :  # atomic orbitals                  23          :
          :  # shells                           13          :
          :  # electrons                        19          :
          :  max. iterations                   250          :
          :  Hamiltonian                  GFN2-xTB          :
          :  restarted?                      false          :
          :  GBSA solvation                  false          :
          :  PC potential                    false          :
          :  electronic temp.          300.0000000     K    :
          :  accuracy                    1.0000000          :
          :  -> integral cutoff          0.2500000E+02      :
          :  -> integral neglect         0.1000000E-07      :
          :  -> SCF convergence          0.1000000E-05 Eh   :
          :  -> wf. convergence          0.1000000E-03 e    :
          :  Broyden damping             0.4000000          :
          ...................................................

 iter      E             dE          RMSdq      gap      omega  full diag
   1     12.1360682  0.121361E+02  0.249E+01    1.36       0.0  T
   2     -4.1760877 -0.163122E+02  0.235E+01    0.58       1.0  T
   3     -3.2482216  0.927866E+00  0.186E+01    0.57       1.0  T
   4     -3.6325866 -0.384365E+00  0.176E+01    0.71       1.0  T
   5     -7.2009462 -0.356836E+01  0.163E+01    0.44       1.0  T
   6     -7.2156563 -0.147101E-01  0.107E+01    1.14       1.0  T
   7     -7.4931066 -0.277450E+00  0.112E+01    1.00       1.0  T
   8     -7.4479272  0.451794E-01  0.111E+01    1.00       1.0  T
   9     -7.2829870  0.164940E+00  0.105E+01    1.03       1.0  T
  10      9.2292444  0.165122E+02  0.251E+01    1.24       1.0  T
  11     -8.0098835 -0.172391E+02  0.749E+00    0.64       1.0  T
  12     -7.7071382  0.302745E+00  0.838E+00    0.93       1.0  T
  13     -7.8541742 -0.147036E+00  0.699E+00    0.85       1.0  T
  14     -7.9848869 -0.130713E+00  0.629E+00    0.18       1.0  T
  15     -7.5984231  0.386464E+00  0.794E+00    0.17       1.0  T
  16     -7.2236373  0.374786E+00  0.914E+00    0.18       1.0  T
  17     -7.8022407 -0.578603E+00  0.714E+00    0.17       1.0  T
  18     -7.8862213 -0.839806E-01  0.668E+00    0.19       1.0  T
  19     -8.1609795 -0.274758E+00  0.348E+00    0.59       1.0  T
  20     -8.1577093  0.327017E-02  0.363E+00    0.61       1.0  T
  21     -8.1069102  0.507991E-01  0.381E+00    0.73       1.0  T
  22     -8.0372178  0.696924E-01  0.367E+00    0.84       1.0  T
  23     -8.1528385 -0.115621E+00  0.385E+00    0.53       1.0  T
  24     -8.1609451 -0.810666E-02  0.376E+00    0.51       1.0  T
  25     -8.0553834  0.105562E+00  0.312E+00    0.85       1.0  T
  26     -8.1029924 -0.476090E-01  0.281E+00    0.76       1.0  T
  27     -8.1480244 -0.450320E-01  0.274E+00    0.60       1.0  T
  28     -8.1409455  0.707890E-02  0.251E+00    0.65       1.0  T
  29     -8.1401539  0.791610E-03  0.229E+00    0.66       1.0  T
  30     -8.1619348 -0.217809E-01  0.190E+00    0.60       1.0  T
  31     -8.1801523 -0.182175E-01  0.160E+00    0.54       1.0  T
  32     -8.1752264  0.492593E-02  0.151E+00    0.59       1.0  T
  33     -8.1713973  0.382909E-02  0.149E+00    0.61       1.0  T
  34     -8.1705542  0.843067E-03  0.140E+00    0.63       1.0  T
  35     -8.1704625  0.917034E-04  0.123E+00    0.65       1.0  T
  36     -8.1789745 -0.851200E-02  0.104E+00    0.62       1.0  T
  37     -8.1866249 -0.765034E-02  0.841E-01    0.59       1.0  T
  38     -8.1943101 -0.768523E-02  0.549E-01    0.54       1.0  T
  39     -8.1960430 -0.173292E-02  0.419E-01    0.53       1.0  T
  40     -8.1981948 -0.215182E-02  0.188E-01    0.50       1.0  T
  41     -8.1983706 -0.175747E-03  0.119E-01    0.50       1.0  T
  42     -8.1983802 -0.959891E-05  0.456E-02    0.49       1.0  T
  43     -8.1984009 -0.207701E-04  0.380E-02    0.49       1.0  T
  44     -8.1984042 -0.328565E-05  0.361E-02    0.49       1.0  T
  45     -8.1984377 -0.334816E-04  0.168E-02    0.49       2.1  T
  46     -8.1984437 -0.599791E-05  0.807E-03    0.50       4.4  T
  47     -8.1984447 -0.950299E-06  0.658E-03    0.50       5.4  T
  48     -8.1984446  0.337889E-07  0.347E-03    0.50      10.2  T
  49     -8.1984447 -0.380614E-07  0.172E-03    0.50      20.5  T
  50     -8.1984447  0.612411E-09  0.852E-04    0.50      41.5  T
  51     -8.1984447 -0.195950E-08  0.500E-04    0.50      70.7  T

   *** convergence criteria satisfied after 51 iterations ***

         #    Occupation            Energy/Eh            Energy/eV
      -------------------------------------------------------------
         1        2.0000           -0.5740949             -15.6219
       ...           ...                  ...                  ...
         4        2.0000           -0.3397915              -9.2462
         5        2.0000           -0.3082841              -8.3888
         6        2.0000           -0.2705352              -7.3616
         7        2.0000           -0.2622103              -7.1351
         8        2.0000           -0.2394774              -6.5165
         9        1.9999           -0.2046771              -5.5695
        10        1.0000           -0.1863651              -5.0713 (HOMO)
        11        0.0001           -0.1681280              -4.5750 (LUMO)
        12        0.0000           -0.1635782              -4.4512
        13                         -0.1441565              -3.9227
        14                         -0.0980583              -2.6683
        15                         -0.0624172              -1.6985
       ...                                ...                  ...
        23                          0.3840759              10.4512
      -------------------------------------------------------------
                  HL-Gap            0.0182371 Eh            0.4963 eV
             Fermi-level           -0.1863858 Eh           -5.0718 eV

 SCC (total)                   0 d,  0 h,  0 min,  0.012 sec
 SCC setup                      ...        0 min,  0.000 sec (  2.553%)
 Dispersion                     ...        0 min,  0.000 sec (  1.728%)
 classical contributions        ...        0 min,  0.000 sec (  0.982%)
 integral evaluation            ...        0 min,  0.000 sec (  1.874%)
 iterations                     ...        0 min,  0.010 sec ( 87.634%)
 molecular gradient             ...        0 min,  0.001 sec (  4.456%)
 printout                       ...        0 min,  0.000 sec (  0.629%)

         :::::::::::::::::::::::::::::::::::::::::::::::::::::
         ::                     SUMMARY                     ::
         :::::::::::::::::::::::::::::::::::::::::::::::::::::
         :: total energy              -8.147900944761 Eh    ::
         :: gradient norm              0.289458306623 Eh/a0 ::
         :: HOMO-LUMO gap              0.496255956341 eV    ::
         ::.................................................::
         :: SCC energy                -8.198444661183 Eh    ::
         :: -> isotropic ES            0.013506787170 Eh    ::
         :: -> anisotropic ES          0.003291230820 Eh    ::
         :: -> anisotropic XC         -0.018027482188 Eh    ::
         :: -> dispersion             -0.004193640573 Eh    ::
         :: repulsion energy           0.050543531956 Eh    ::
         :: add. restraining           0.000000000000 Eh    ::
         :: total charge              -0.000000000003 e     ::
         :::::::::::::::::::::::::::::::::::::::::::::::::::::

      ----------------------------------------------------------- 
     |                   =====================                   |
     |                        A N C O P T                        |
     |                   =====================                   |
     |               Approximate Normal Coordinate               |
     |                Rational Function Optimizer                |
      ----------------------------------------------------------- 

          ...................................................
          :                      SETUP                      :
          :.................................................:
          :   optimization level            normal          :
          :   max. optcycles                   200          :
          :   ANC micro-cycles                  20          :
          :   degrees of freedom                18          :
          :.................................................:
          :   RF solver                   davidson          :
          :   write xtbopt.log                true          :
          :   linear?                        false          :
          :   energy convergence         0.5000000E-05 Eh   :
          :   grad. convergence          0.1000000E-02 Eh/α :
          :   maximium RF displ.         1.0000000          :
          :   Hlow (freq-cutoff)         0.1000000E-01      :
          :   Hmax (freq-cutoff)         5.0000000          :
          :   S6 in model hess.         20.0000000          :
          ...................................................

generating ANC from model Hessian ...
Using Lindh-Hessian (1995)
 Shifting diagonal of input Hessian by    9.7598090019977452E-003
 Lowest  eigenvalues of input Hessian
    0.000000    0.000000    0.000000    0.000000    0.000000    0.000000
    0.010000    0.010826    0.013418    0.017237    0.027932    0.044234
    0.073558    0.091670    0.107877    0.141624    0.153650    0.200991
 Highest eigenvalues
    0.228453    0.268962    0.320664    0.401538    0.474530    0.633864


........................................................................
.............................. CYCLE    1 ..............................
........................................................................
   1     -8.1984447 -0.819844E+01  0.195E-04    0.50       0.0  T
   2     -8.1984446  0.118906E-07  0.697E-04    0.50      50.7  T
   3     -8.1984447 -0.875289E-08  0.411E-04    0.50      86.0  T
     SCC iter.                  ...        0 min,  0.000 sec
     gradient                   ...        0 min,  0.001 sec
 * total energy  :    -8.1479009 Eh     change        0.3167964E-08 Eh
   gradient norm :     0.2880381 Eh/α   predicted     0.0000000E+00 (-100.00%)
   displ. norm   :     0.7020502 α      lambda       -0.1832936E+00
   maximum displ.:     0.3503463 α      in ANC's #15, #7, #6, ...

........................................................................
.............................. CYCLE    2 ..............................
........................................................................
   1     -8.3282679 -0.832827E+01  0.385E+00    0.62       0.0  T
   2     -8.2598348  0.684330E-01  0.327E+00    0.28       1.0  T
   3     -8.1623749  0.974600E-01  0.334E+00    1.35       1.0  T
   4     -7.6232077  0.539167E+00  0.669E+00    0.36       1.0  T
   5     -8.3123428 -0.689135E+00  0.185E+00    0.68       1.0  T
   6     -8.3199931 -0.765027E-02  0.267E+00    0.42       1.0  T
   7     -8.3393452 -0.193521E-01  0.172E+00    0.63       1.0  T
   8     -8.3375836  0.176158E-02  0.134E+00    0.69       1.0  T
   9     -8.3471044 -0.952075E-02  0.873E-01    0.60       1.0  T
  10     -8.3493270 -0.222264E-02  0.535E-01    0.58       1.0  T
  11     -8.3488851  0.441941E-03  0.466E-01    0.60       1.0  T
  12     -8.3499626 -0.107756E-02  0.318E-01    0.57       1.0  T
  13     -8.3499319  0.307822E-04  0.262E-01    0.58       1.0  T
  14     -8.3502792 -0.347293E-03  0.158E-01    0.57       1.0  T
  15     -8.3503152 -0.360224E-04  0.123E-01    0.57       1.0  T
  16     -8.3504073 -0.921069E-04  0.686E-02    0.56       1.0  T
  17     -8.3504311 -0.237739E-04  0.335E-02    0.56       1.1  T
  18     -8.3504386 -0.750926E-05  0.139E-02    0.56       2.6  T
  19     -8.3504399 -0.130324E-05  0.552E-03    0.56       6.4  T
  20     -8.3504401 -0.205164E-06  0.256E-03    0.56      13.8  T
  21     -8.3504401 -0.462693E-07  0.389E-04    0.56      90.9  T
  22     -8.3504401 -0.950845E-09  0.122E-04    0.56     288.7  T
     SCC iter.                  ...        0 min,  0.004 sec
     gradient                   ...        0 min,  0.001 sec
 * total energy  :    -8.3062658 Eh     change       -0.1583648E+00 Eh
   gradient norm :     0.2369892 Eh/α   predicted    -0.1368171E+00 ( -13.61%)
   displ. norm   :     0.9069881 α      lambda       -0.2078909E+00
   maximum displ.:     0.4223236 α      in ANC's #15, #18, #7, ...

........................................................................
.............................. CYCLE    3 ..............................
........................................................................
   1     -8.5701233 -0.857012E+01  0.331E+00    1.22       0.0  T
   2     -8.5596699  0.104533E-01  0.252E+00    1.04       1.0  T
   3     -8.4924035  0.672664E-01  0.354E+00    0.95       1.0  T
   4     -8.5039220 -0.115185E-01  0.301E+00    1.90       1.0  T
   5     -8.5753636 -0.714416E-01  0.104E+00    0.81       1.0  T
   6     -8.5772780 -0.191435E-02  0.693E-01    1.17       1.0  T
   7     -8.5775820 -0.303995E-03  0.804E-01    0.93       1.0  T
   8     -8.5812115 -0.362951E-02  0.228E-01    1.04       1.0  T
   9     -8.5813860 -0.174478E-03  0.138E-01    1.05       1.0  T
  10     -8.5813555  0.304627E-04  0.128E-01    1.04       1.0  T
  11     -8.5814568 -0.101256E-03  0.133E-02    1.07       2.7  T
  12     -8.5814575 -0.788686E-06  0.479E-03    1.07       7.4  T
  13     -8.5814577 -0.174955E-06  0.151E-03    1.07      23.4  T
  14     -8.5814577  0.544137E-08  0.970E-04    1.07      36.4  T
  15     -8.5814577 -0.822151E-08  0.136E-04    1.07     260.4  T
     SCC iter.                  ...        0 min,  0.002 sec
     gradient                   ...        0 min,  0.000 sec
 * total energy  :    -8.4419559 Eh     change       -0.1356901E+00 Eh
   gradient norm :     0.2379683 Eh/α   predicted    -0.1894538E+00 (  39.62%)
   displ. norm   :     0.6409509 α      lambda       -0.1112449E+00
   maximum displ.:     0.3163636 α      in ANC's #7, #5, #17, ...

........................................................................
.............................. CYCLE    4 ..............................
........................................................................
   1     -8.6441897 -0.864419E+01  0.253E+00    1.35       0.0  T
   2     -8.6333452  0.108445E-01  0.194E+00    0.91       1.0  T
   3     -8.5667561  0.665891E-01  0.301E+00    1.78       1.0  T
   4     -8.6276189 -0.608628E-01  0.132E+00    1.40       1.0  T
   5     -8.6444732 -0.168543E-01  0.369E-01    1.25       1.0  T
   6     -8.6447484 -0.275242E-03  0.589E-01    1.13       1.0  T
   7     -8.6451628 -0.414438E-03  0.488E-01    1.15       1.0  T
   8     -8.6468258 -0.166293E-02  0.562E-02    1.20       1.0  T
   9     -8.6468269 -0.112530E-05  0.403E-02    1.20       1.0  T
  10     -8.6468286 -0.170741E-05  0.296E-02    1.20       1.2  T
  11     -8.6468291 -0.484881E-06  0.129E-02    1.20       2.7  T
  12     -8.6468290  0.528384E-07  0.420E-03    1.20       8.4  T
  13     -8.6468291 -0.574435E-07  0.144E-03    1.20      24.5  T
  14     -8.6468291 -0.228824E-07  0.244E-04    1.20     144.7  T
  15     -8.6468291 -0.204162E-09  0.555E-05    1.20     636.5  T
     SCC iter.                  ...        0 min,  0.002 sec
     gradient                   ...        0 min,  0.000 sec
 * total energy  :    -8.5119485 Eh     change       -0.6999260E-01 Eh
   gradient norm :     0.1147278 Eh/α   predicted    -0.7847315E-01 (  12.12%)
   displ. norm   :     0.7489992 α      lambda       -0.6395011E-01
   maximum displ.:     0.4398076 α      in ANC's #5, #6, #3, ...

........................................................................
.............................. CYCLE    5 ..............................
........................................................................
   1     -8.6802902 -0.868029E+01  0.274E+00    0.86       0.0  T
   2     -8.6779947  0.229546E-02  0.183E+00    0.94       1.0  T
   3     -8.6065075  0.714872E-01  0.263E+00    0.63       1.0  T
   4     -8.6801148 -0.736073E-01  0.435E-01    0.94       1.0  T
   5     -8.6812533 -0.113846E-02  0.236E-01    0.87       1.0  T
   6     -8.6812425  0.108044E-04  0.225E-01    0.85       1.0  T
   7     -8.6814865 -0.244036E-03  0.757E-02    0.89       1.0  T
   8     -8.6814055  0.810416E-04  0.117E-01    0.86       1.0  T
   9     -8.6815596 -0.154102E-03  0.287E-02    0.87       1.2  T
  10     -8.6815636 -0.400387E-05  0.734E-03    0.87       4.8  T
  11     -8.6815641 -0.495176E-06  0.128E-03    0.87      27.6  T
  12     -8.6815641 -0.135183E-07  0.305E-04    0.87     115.9  T
  13     -8.6815641 -0.180860E-09  0.770E-05    0.87     459.2  T
     SCC iter.                  ...        0 min,  0.002 sec
     gradient                   ...        0 min,  0.000 sec
 * total energy  :    -8.5348928 Eh     change       -0.2294430E-01 Eh
   gradient norm :     0.1347236 Eh/α   predicted    -0.4991302E-01 ( 117.54%)
   displ. norm   :     0.5316937 α      lambda       -0.5265465E-01
   maximum displ.:     0.3012765 α      in ANC's #9, #14, #1, ...

........................................................................
.............................. CYCLE    6 ..............................
........................................................................
   1     -8.7023342 -0.870233E+01  0.182E+00    1.13       0.0  T
   2     -8.6798305  0.225038E-01  0.162E+00    0.90       1.0  T
   3     -8.6750503  0.478016E-02  0.196E+00    1.16       1.0  T
   4     -8.6882445 -0.131942E-01  0.120E+00    1.32       1.0  T
   5     -8.7064303 -0.181858E-01  0.199E-01    1.07       1.0  T
   6     -8.7064834 -0.530577E-04  0.174E-01    1.08       1.0  T
   7     -8.7064621  0.213305E-04  0.149E-01    1.08       1.0  T
   8     -8.7065047 -0.426461E-04  0.560E-02    1.08       1.0  T
   9     -8.7065315 -0.267814E-04  0.254E-02    1.09       1.4  T
  10     -8.7065350 -0.352832E-05  0.820E-03    1.08       4.3  T
  11     -8.7065359 -0.885196E-06  0.550E-03    1.09       6.4  T
  12     -8.7065360 -0.135529E-06  0.896E-04    1.08      39.5  T
  13     -8.7065360  0.195924E-08  0.739E-04    1.08      47.9  T
     SCC iter.                  ...        0 min,  0.002 sec
     gradient                   ...        0 min,  0.000 sec
 * total energy  :    -8.5552324 Eh     change       -0.2033957E-01 Eh
   gradient norm :     0.0879733 Eh/α   predicted    -0.3377001E-01 (  66.03%)
   displ. norm   :     0.5451196 α      lambda       -0.2844717E-01
   maximum displ.:     0.3045035 α      in ANC's #4, #9, #3, ...

........................................................................
.............................. CYCLE    7 ..............................
........................................................................
   1     -8.7246141 -0.872461E+01  0.194E+00    1.46       0.0  T
   2     -8.7186519  0.596220E-02  0.165E+00    1.44       1.0  T
   3     -8.7164967  0.215520E-02  0.141E+00    1.45       1.0  T
   4     -8.6957929  0.207038E-01  0.198E+00    1.47       1.0  T
   5     -8.7278098 -0.320169E-01  0.407E-01    1.44       1.0  T
   6     -8.7278261 -0.163257E-04  0.289E-01    1.52       1.0  T
   7     -8.7283616 -0.535460E-03  0.215E-01    1.43       1.0  T
   8     -8.7286984 -0.336869E-03  0.101E-01    1.47       1.0  T
   9     -8.7287414 -0.429427E-04  0.562E-02    1.47       1.0  T
  10     -8.7287762 -0.347969E-04  0.127E-02    1.46       2.8  T
  11     -8.7287771 -0.890396E-06  0.476E-03    1.46       7.4  T
  12     -8.7287772 -0.141077E-06  0.647E-04    1.46      54.6  T
  13     -8.7287772 -0.217797E-09  0.283E-04    1.46     125.0  T
     SCC iter.                  ...        0 min,  0.003 sec
     gradient                   ...        0 min,  0.000 sec
 * total energy  :    -8.5543121 Eh     change        0.9203134E-03 Eh
   gradient norm :     0.1610975 Eh/α   predicted    -0.1845020E-01 (*******%)
   displ. norm   :     0.4027835 α      lambda       -0.3315267E-01
   maximum displ.:     0.2707319 α      in ANC's #3, #1, #9, ...

........................................................................
.............................. CYCLE    8 ..............................
........................................................................
   1     -8.6790525 -0.867905E+01  0.227E+00    1.07       0.0  T
   2     -8.6646704  0.143821E-01  0.170E+00    0.88       1.0  T
   3     -8.6404522  0.242183E-01  0.223E+00    1.11       1.0  T
   4     -8.6568829 -0.164307E-01  0.155E+00    1.19       1.0  T
   5     -8.6826042 -0.257214E-01  0.286E-01    1.02       1.0  T
   6     -8.6830919 -0.487630E-03  0.208E-01    1.06       1.0  T
   7     -8.6829816  0.110240E-03  0.222E-01    1.01       1.0  T
   8     -8.6832952 -0.313532E-03  0.132E-01    1.03       1.0  T
   9     -8.6833754 -0.802227E-04  0.534E-02    1.03       1.0  T
  10     -8.6834091 -0.337577E-04  0.971E-03    1.03       3.6  T
  11     -8.6834095 -0.336916E-06  0.339E-03    1.03      10.4  T
  12     -8.6834095 -0.345713E-07  0.181E-03    1.03      19.5  T
  13     -8.6834095 -0.228242E-07  0.495E-04    1.03      71.4  T
  14     -8.6834095 -0.196477E-08  0.105E-04    1.03     337.2  T
     SCC iter.                  ...        0 min,  0.002 sec
     gradient                   ...        0 min,  0.000 sec
 * total energy  :    -8.5641179 Eh     change       -0.9805803E-02 Eh
   gradient norm :     0.0797618 Eh/α   predicted    -0.1926559E-01 (  96.47%)
   displ. norm   :     0.4907601 α      lambda       -0.2368720E-01
   maximum displ.:     0.3423485 α      in ANC's #1, #14, #15, ...

........................................................................
.............................. CYCLE    9 ..............................
........................................................................
   1     -8.7058487 -0.870585E+01  0.164E+00    0.75       0.0  T
   2     -8.7042382  0.161051E-02  0.113E+00    0.79       1.0  T
   3     -8.6850338  0.192044E-01  0.145E+00    0.63       1.0  T
   4     -8.6931887 -0.815490E-02  0.108E+00    0.87       1.0  T
   5     -8.7067785 -0.135898E-01  0.206E-01    0.78       1.0  T
   6     -8.7071748 -0.396334E-03  0.137E-01    0.76       1.0  T
   7     -8.7068672  0.307646E-03  0.206E-01    0.75       1.0  T
   8     -8.7072253 -0.358145E-03  0.533E-02    0.75       1.0  T
   9     -8.7072598 -0.344934E-04  0.170E-02    0.76       2.1  T
  10     -8.7072603 -0.459734E-06  0.127E-02    0.76       2.8  T
  11     -8.7072617 -0.144884E-05  0.136E-03    0.76      26.1  T
  12     -8.7072617 -0.742067E-08  0.303E-04    0.76     116.6  T
  13     -8.7072617 -0.202274E-10  0.151E-04    0.76     233.9  T
     SCC iter.                  ...        0 min,  0.002 sec
     gradient                   ...        0 min,  0.000 sec
 * total energy  :    -8.5683114 Eh     change       -0.4193556E-02 Eh
   gradient norm :     0.0779976 Eh/α   predicted    -0.1469607E-01 ( 250.44%)
   displ. norm   :     0.3957681 α      lambda       -0.1660531E-01
   maximum displ.:     0.3346356 α      in ANC's #2, #8, #12, ...

........................................................................
.............................. CYCLE   10 ..............................
........................................................................
   1     -8.7160931 -0.871609E+01  0.220E+00    1.14       0.0  T
   2     -8.7100769  0.601624E-02  0.154E+00    1.22       1.0  T
   3     -8.4910320  0.219045E+00  0.362E+00    0.81       1.0  T
   4     -8.7066468 -0.215615E+00  0.793E-01    1.29       1.0  T
   5     -8.7150973 -0.845057E-02  0.572E-01    1.10       1.0  T
   6     -8.7165222 -0.142488E-02  0.325E-01    1.18       1.0  T
   7     -8.7166185 -0.962523E-04  0.278E-01    1.17       1.0  T
   8     -8.7168127 -0.194242E-03  0.268E-01    1.16       1.0  T
   9     -8.7171367 -0.324025E-03  0.496E-02    1.15       1.0  T
  10     -8.7171429 -0.617129E-05  0.262E-02    1.15       1.4  T
  11     -8.7171492 -0.632171E-05  0.776E-03    1.15       4.6  T
  12     -8.7171495 -0.265126E-06  0.257E-03    1.15      13.8  T
  13     -8.7171496 -0.846481E-07  0.138E-03    1.15      25.5  T
  14     -8.7171496 -0.124658E-07  0.538E-04    1.15      65.7  T
  15     -8.7171496 -0.134087E-08  0.274E-05    1.15    1289.8  T
     SCC iter.                  ...        0 min,  0.002 sec
     gradient                   ...        0 min,  0.001 sec
 * total energy  :    -8.5785208 Eh     change       -0.1020940E-01 Eh
   gradient norm :     0.0405340 Eh/α   predicted    -0.9603113E-02 (  -5.94%)
   displ. norm   :     0.6788212 α      lambda       -0.1884793E-01
   maximum displ.:     0.4197828 α      in ANC's #3, #8, #4, ...

........................................................................
.............................. CYCLE   11 ..............................
........................................................................
   1     -8.7080303 -0.870803E+01  0.389E+00    1.52       0.0  T
   2     -8.6251952  0.828351E-01  0.311E+00    1.48       1.0  T
   3     -8.4689398  0.156255E+00  0.443E+00    1.20       1.0  T
   4     -8.6116056 -0.142666E+00  0.313E+00    1.81       1.0  T
   5     -8.7171320 -0.105526E+00  0.104E+00    1.47       1.0  T
   6     -8.7151766  0.195535E-02  0.104E+00    1.57       1.0  T
   7     -8.7162738 -0.109720E-02  0.954E-01    1.56       1.0  T
   8     -8.7181794 -0.190560E-02  0.788E-01    1.55       1.0  T
   9     -8.7209911 -0.281174E-02  0.320E-01    1.52       1.0  T
  10     -8.7212067 -0.215597E-03  0.985E-02    1.50       1.0  T
  11     -8.7212124 -0.570104E-05  0.538E-02    1.51       1.0  T
  12     -8.7212169 -0.445845E-05  0.129E-02    1.51       2.7  T
  13     -8.7212175 -0.574436E-06  0.585E-03    1.51       6.0  T
  14     -8.7212176 -0.147695E-06  0.166E-03    1.51      21.4  T
  15     -8.7212176 -0.178137E-07  0.592E-04    1.51      59.7  T
  16     -8.7212176 -0.329935E-09  0.119E-04    1.51     297.1  T
     SCC iter.                  ...        0 min,  0.002 sec
     gradient                   ...        0 min,  0.001 sec
 * total energy  :    -8.5824629 Eh     change       -0.3942097E-02 Eh
   gradient norm :     0.0943858 Eh/α   predicted    -0.1376650E-01 ( 249.22%)
   displ. norm   :     0.4057154 α      lambda       -0.2026480E-01
   maximum displ.:     0.1659498 α      in ANC's #2, #12, #8, ...

........................................................................
.............................. CYCLE   12 ..............................
........................................................................
   1     -8.7497357 -0.874974E+01  0.219E+00    1.89       0.0  T
   2     -8.7319371  0.177986E-01  0.165E+00    1.93       1.0  T
   3     -8.6863813  0.455557E-01  0.258E+00    1.79       1.0  T
   4     -8.7278158 -0.414344E-01  0.133E+00    2.02       1.0  T
   5     -8.7527911 -0.249753E-01  0.234E-01    1.88       1.0  T
   6     -8.7527062  0.849231E-04  0.210E-01    1.90       1.0  T
   7     -8.7529810 -0.274806E-03  0.159E-01    1.89       1.0  T
   8     -8.7531013 -0.120309E-03  0.971E-02    1.88       1.0  T
   9     -8.7531802 -0.789236E-04  0.115E-02    1.88       3.1  T
  10     -8.7531808 -0.545689E-06  0.381E-03    1.88       9.3  T
  11     -8.7531808 -0.483404E-07  0.178E-03    1.88      19.8  T
  12     -8.7531808 -0.865838E-08  0.405E-04    1.88      87.2  T
  13     -8.7531808  0.945377E-10  0.264E-04    1.88     133.9  T
     SCC iter.                  ...        0 min,  0.002 sec
     gradient                   ...        0 min,  0.000 sec
 * total energy  :    -8.5967299 Eh     change       -0.1426694E-01 Eh
   gradient norm :     0.0743955 Eh/α   predicted    -0.1180024E-01 ( -17.29%)
   displ. norm   :     0.6103698 α      lambda       -0.2332075E-01
   maximum displ.:     0.3158263 α      in ANC's #2, #6, #1, ...

........................................................................
.............................. CYCLE   13 ..............................
........................................................................
   1     -8.7619198 -0.876192E+01  0.209E+00    1.80       0.0  T
   2     -8.7455531  0.163667E-01  0.161E+00    1.75       1.0  T
   3     -8.7101083  0.354448E-01  0.227E+00    1.69       1.0  T
   4     -8.7468842 -0.367758E-01  0.109E+00    1.95       1.0  T
   5     -8.7653033 -0.184191E-01  0.191E-01    1.78       1.0  T
   6     -8.7654389 -0.135622E-03  0.141E-01    1.77       1.0  T
   7     -8.7653560  0.828903E-04  0.139E-01    1.76       1.0  T
   8     -8.7654618 -0.105807E-03  0.722E-02    1.78       1.0  T
   9     -8.7655044 -0.425288E-04  0.122E-02    1.77       2.9  T
  10     -8.7655057 -0.130520E-05  0.880E-03    1.77       4.0  T
  11     -8.7655057  0.595604E-08  0.242E-03    1.77      14.6  T
  12     -8.7655057 -0.372510E-07  0.109E-03    1.77      32.4  T
  13     -8.7655057 -0.137994E-07  0.385E-04    1.77      91.9  T
  14     -8.7655057 -0.140909E-08  0.758E-05    1.77     466.4  T
     SCC iter.                  ...        0 min,  0.002 sec
     gradient                   ...        0 min,  0.000 sec
 * total energy  :    -8.6049696 Eh     change       -0.8239752E-02 Eh
   gradient norm :     0.0574026 Eh/α   predicted    -0.1600449E-01 (  94.24%)
   displ. norm   :     0.3189434 α      lambda       -0.9553605E-02
   maximum displ.:     0.1563061 α      in ANC's #2, #8, #10, ...

........................................................................
.............................. CYCLE   14 ..............................
........................................................................
   1     -8.7845564 -0.878456E+01  0.124E+00    1.38       0.0  T
   2     -8.7838436  0.712843E-03  0.795E-01    1.35       1.0  T
   3     -8.7546599  0.291837E-01  0.141E+00    1.49       1.0  T
   4     -8.7838471 -0.291872E-01  0.282E-01    1.34       1.0  T
   5     -8.7844485 -0.601393E-03  0.145E-01    1.38       1.0  T
   6     -8.7847104 -0.261962E-03  0.611E-02    1.36       1.0  T
   7     -8.7846951  0.153163E-04  0.525E-02    1.37       1.0  T
   8     -8.7847237 -0.285422E-04  0.121E-02    1.37       2.9  T
   9     -8.7847239 -0.202150E-06  0.109E-02    1.37       3.2  T
  10     -8.7847249 -0.102406E-05  0.373E-03    1.37       9.5  T
  11     -8.7847250 -0.140549E-06  0.103E-03    1.37      34.5  T
  12     -8.7847250 -0.263339E-08  0.169E-04    1.37     209.1  T
  13     -8.7847250 -0.218829E-10  0.337E-05    1.37    1050.1  T
     SCC iter.                  ...        0 min,  0.002 sec
     gradient                   ...        0 min,  0.000 sec
 * total energy  :    -8.6083615 Eh     change       -0.3391824E-02 Eh
   gradient norm :     0.0571237 Eh/α   predicted    -0.5262722E-02 (  55.16%)
   displ. norm   :     0.3029533 α      lambda       -0.1001756E-01
   maximum displ.:     0.1515676 α      in ANC's #12, #8, #4, ...

........................................................................
.............................. CYCLE   15 ..............................
........................................................................
   1     -8.7664278 -0.876643E+01  0.955E-01    1.14       0.0  T
   2     -8.7597706  0.665720E-02  0.103E+00    1.04       1.0  T
   3     -8.7641468 -0.437611E-02  0.572E-01    1.17       1.0  T
   4     -8.7549522  0.919455E-02  0.939E-01    1.01       1.0  T
   5     -8.7676266 -0.126744E-01  0.855E-02    1.11       1.0  T
   6     -8.7674163  0.210296E-03  0.142E-01    1.09       1.0  T
   7     -8.7674745 -0.581918E-04  0.116E-01    1.11       1.0  T
   8     -8.7676340 -0.159489E-03  0.996E-03    1.11       3.5  T
   9     -8.7676352 -0.119976E-05  0.600E-03    1.11       5.9  T
  10     -8.7676354 -0.194969E-06  0.246E-03    1.11      14.4  T
  11     -8.7676354 -0.984036E-08  0.642E-04    1.11      55.1  T
  12     -8.7676354 -0.165759E-08  0.585E-05    1.11     604.8  T
     SCC iter.                  ...        0 min,  0.001 sec
     gradient                   ...        0 min,  0.001 sec
 * total energy  :    -8.6094513 Eh     change       -0.1089844E-02 Eh
   gradient norm :     0.0536019 Eh/α   predicted    -0.5468489E-02 ( 401.77%)
   displ. norm   :     0.3708348 α      lambda       -0.8227612E-02
   maximum displ.:     0.2570623 α      in ANC's #3, #8, #2, ...

........................................................................
.............................. CYCLE   16 ..............................
........................................................................
   1     -8.7893765 -0.878938E+01  0.170E+00    1.46       0.0  T
   2     -8.7877316  0.164489E-02  0.120E+00    1.42       1.0  T
   3     -8.7337850  0.539466E-01  0.190E+00    1.72       1.0  T
   4     -8.7882150 -0.544300E-01  0.468E-01    1.41       1.0  T
   5     -8.7897529 -0.153795E-02  0.111E-01    1.46       1.0  T
   6     -8.7896983  0.546431E-04  0.150E-01    1.45       1.0  T
   7     -8.7896950  0.327287E-05  0.128E-01    1.44       1.0  T
   8     -8.7898433 -0.148302E-03  0.310E-02    1.46       1.1  T
   9     -8.7898462 -0.285014E-05  0.148E-02    1.46       2.4  T
  10     -8.7898477 -0.156273E-05  0.758E-03    1.46       4.7  T
  11     -8.7898477  0.210086E-07  0.290E-03    1.46      12.2  T
  12     -8.7898478 -0.595665E-07  0.765E-04    1.46      46.2  T
  13     -8.7898478 -0.563658E-08  0.142E-04    1.46     248.8  T
     SCC iter.                  ...        0 min,  0.002 sec
     gradient                   ...        0 min,  0.000 sec
 * total energy  :    -8.6104522 Eh     change       -0.1000848E-02 Eh
   gradient norm :     0.0565493 Eh/α   predicted    -0.4679534E-02 ( 367.56%)
   displ. norm   :     0.2875507 α      lambda       -0.9640034E-02
   maximum displ.:     0.1562635 α      in ANC's #2, #11, #1, ...

........................................................................
.............................. CYCLE   17 ..............................
........................................................................
   1     -8.7795886 -0.877959E+01  0.118E+00    1.19       0.0  T
   2     -8.7770870  0.250164E-02  0.832E-01    1.17       1.0  T
   3     -8.7523835  0.247035E-01  0.138E+00    1.15       1.0  T
   4     -8.7706495 -0.182660E-01  0.792E-01    1.31       1.0  T
   5     -8.7799504 -0.930092E-02  0.137E-01    1.20       1.0  T
   6     -8.7801599 -0.209467E-03  0.822E-02    1.18       1.0  T
   7     -8.7801227  0.372456E-04  0.913E-02    1.18       1.0  T
   8     -8.7801592 -0.365939E-04  0.411E-02    1.18       1.0  T
   9     -8.7801767 -0.174375E-04  0.840E-03    1.19       4.2  T
  10     -8.7801774 -0.719879E-06  0.251E-03    1.19      14.1  T
  11     -8.7801774  0.309957E-08  0.192E-03    1.19      18.4  T
  12     -8.7801774 -0.324161E-07  0.607E-04    1.19      58.3  T
  13     -8.7801774 -0.395177E-08  0.157E-04    1.19     224.8  T
     SCC iter.                  ...        0 min,  0.002 sec
     gradient                   ...        0 min,  0.001 sec
 * total energy  :    -8.6144743 Eh     change       -0.4022177E-02 Eh
   gradient norm :     0.0334352 Eh/α   predicted    -0.5218566E-02 (  29.74%)
   displ. norm   :     0.3299067 α      lambda       -0.5946987E-02
   maximum displ.:     0.1761613 α      in ANC's #5, #12, #6, ...

........................................................................
.............................. CYCLE   18 ..............................
........................................................................
   1     -8.7932832 -0.879328E+01  0.153E+00    0.74       0.0  T
   2     -8.7804798  0.128034E-01  0.146E+00    0.75       1.0  T
   3     -8.7751824  0.529737E-02  0.128E+00    0.84       1.0  T
   4     -8.7872106 -0.120282E-01  0.844E-01    0.61       1.0  T
   5     -8.7941137 -0.690305E-02  0.241E-01    0.82       1.0  T
   6     -8.7950947 -0.981049E-03  0.162E-01    0.76       1.0  T
   7     -8.7950414  0.532893E-04  0.146E-01    0.75       1.0  T
   8     -8.7950573 -0.158418E-04  0.104E-01    0.76       1.0  T
   9     -8.7951653 -0.108052E-03  0.189E-02    0.76       1.9  T
  10     -8.7951720 -0.665475E-05  0.658E-03    0.76       5.4  T
  11     -8.7951721 -0.155716E-06  0.104E-03    0.76      34.2  T
  12     -8.7951721 -0.430127E-10  0.534E-04    0.76      66.2  T
  13     -8.7951721 -0.400316E-09  0.130E-04    0.76     272.9  T
     SCC iter.                  ...        0 min,  0.002 sec
     gradient                   ...        0 min,  0.000 sec
 * total energy  :    -8.6188860 Eh     change       -0.4411636E-02 Eh
   gradient norm :     0.0448042 Eh/α   predicted    -0.3297126E-02 ( -25.26%)
   displ. norm   :     0.7070336 α      lambda       -0.1411503E-01
   maximum displ.:     0.3930014 α      in ANC's #12, #11, #5, ...

........................................................................
.............................. CYCLE   19 ..............................
........................................................................
   1     -8.7869760 -0.878698E+01  0.405E+00    1.21       0.0  T
   2     -8.7337494  0.532266E-01  0.316E+00    0.88       1.0  T
   3     -8.6892116  0.445378E-01  0.360E+00    1.38       1.0  T
   4     -8.7806321 -0.914205E-01  0.146E+00    1.25       1.0  T
   5     -8.7996701 -0.190381E-01  0.603E-01    1.04       1.0  T
   6     -8.8006987 -0.102860E-02  0.380E-01    1.13       1.0  T
   7     -8.8010161 -0.317359E-03  0.392E-01    1.07       1.0  T
   8     -8.8011247 -0.108640E-03  0.258E-01    1.07       1.0  T
   9     -8.8015466 -0.421861E-03  0.465E-02    1.09       1.0  T
  10     -8.8015654 -0.187907E-04  0.372E-02    1.10       1.0  T
  11     -8.8015781 -0.127391E-04  0.296E-03    1.10      11.9  T
  12     -8.8015781 -0.104725E-07  0.120E-03    1.10      29.3  T
  13     -8.8015781 -0.696283E-08  0.424E-04    1.10      83.4  T
  14     -8.8015781 -0.127069E-08  0.948E-05    1.10     372.8  T
     SCC iter.                  ...        0 min,  0.002 sec
     gradient                   ...        0 min,  0.001 sec
 * total energy  :    -8.6302069 Eh     change       -0.1132091E-01 Eh
   gradient norm :     0.0835420 Eh/α   predicted    -0.1058551E-01 (  -6.50%)
   displ. norm   :     0.4997308 α      lambda       -0.1121459E-01
   maximum displ.:     0.2390665 α      in ANC's #11, #12, #3, ...

........................................................................
.............................. CYCLE   20 ..............................
........................................................................
   1     -8.8049353 -0.880494E+01  0.238E+00    1.47       0.0  T
   2     -8.8011038  0.383153E-02  0.156E+00    1.52       1.0  T
   3     -8.6509803  0.150124E+00  0.279E+00    1.30       1.0  T
   4     -8.7914264 -0.140446E+00  0.914E-01    1.59       1.0  T
   5     -8.8053977 -0.139713E-01  0.183E-01    1.48       1.0  T
   6     -8.8056178 -0.220040E-03  0.215E-01    1.48       1.0  T
   7     -8.8052282  0.389528E-03  0.254E-01    1.45       1.0  T
   8     -8.8058085 -0.580264E-03  0.268E-02    1.48       1.3  T
   9     -8.8058121 -0.355479E-05  0.122E-02    1.48       2.9  T
  10     -8.8058108  0.125919E-05  0.125E-02    1.48       2.8  T
  11     -8.8058123 -0.146126E-05  0.131E-03    1.48      26.9  T
  12     -8.8058123 -0.530066E-08  0.365E-04    1.48      96.8  T
  13     -8.8058123 -0.383872E-09  0.130E-04    1.48     272.2  T
     SCC iter.                  ...        0 min,  0.002 sec
     gradient                   ...        0 min,  0.001 sec
 * total energy  :    -8.6350482 Eh     change       -0.4841378E-02 Eh
   gradient norm :     0.0943561 Eh/α   predicted    -0.7007605E-02 (  44.74%)
   displ. norm   :     0.3894179 α      lambda       -0.2455066E-01
   maximum displ.:     0.1920635 α      in ANC's #6, #11, #8, ...
 * RMSD in coord.:     1.6301645 α      energy gain  -0.4871473E+00 Eh

generating ANC from model Hessian ...
Using Lindh-Hessian (1995)
 Shifting diagonal of input Hessian by    1.0159654532239043E-002
 Lowest  eigenvalues of input Hessian
    0.010000    0.000000    0.000000    0.000000    0.000000    0.000000
    0.000000    0.010331    0.010495    0.010562    0.011528    0.019135
    0.021982    0.075921    0.141711    0.179738    0.292541    0.495575
 Highest eigenvalues
    0.533575    0.735011    0.776501    0.867989    1.383861    1.923870


........................................................................
.............................. CYCLE   21 ..............................
........................................................................
   1     -8.8412420 -0.884124E+01  0.127E+00    1.55       0.0  T
   2     -8.8327778  0.846421E-02  0.123E+00    1.31       1.0  T
   3     -8.8309544  0.182334E-02  0.982E-01    1.67       1.0  T
   4     -8.8374691 -0.651472E-02  0.608E-01    1.46       1.0  T
   5     -8.8421117 -0.464260E-02  0.151E-01    1.49       1.0  T
   6     -8.8424987 -0.387018E-03  0.122E-01    1.48       1.0  T
   7     -8.8422148  0.283906E-03  0.166E-01    1.45       1.0  T
   8     -8.8425446 -0.329780E-03  0.246E-02    1.48       1.4  T
   9     -8.8425491 -0.443651E-05  0.608E-03    1.48       5.8  T
  10     -8.8425493 -0.200753E-06  0.224E-03    1.48      15.8  T
  11     -8.8425493 -0.573753E-07  0.956E-04    1.48      37.0  T
  12     -8.8425493 -0.157114E-08  0.345E-04    1.48     102.6  T
     SCC iter.                  ...        0 min,  0.002 sec
     gradient                   ...        0 min,  0.001 sec
 * total energy  :    -8.6443066 Eh     change       -0.9258361E-02 Eh
   gradient norm :     0.0582063 Eh/α   predicted     0.0000000E+00 (-100.00%)
   displ. norm   :     0.2991828 α      lambda       -0.6381234E-02
   maximum displ.:     0.2778149 α      in ANC's #6, #15, #8, ...

........................................................................
.............................. CYCLE   22 ..............................
........................................................................
   1     -8.8323109 -0.883231E+01  0.101E+00    1.54       0.0  T
   2     -8.8323224 -0.115340E-04  0.640E-01    1.55       1.0  T
   3     -8.8318641  0.458331E-03  0.240E-01    1.51       1.0  T
   4     -8.8322179 -0.353763E-03  0.108E-01    1.53       1.0  T
   5     -8.8323333 -0.115439E-03  0.521E-02    1.55       1.0  T
   6     -8.8322906  0.427328E-04  0.699E-02    1.52       1.0  T
   7     -8.8323509 -0.602815E-04  0.170E-02    1.54       2.1  T
   8     -8.8323523 -0.141645E-05  0.893E-03    1.54       4.0  T
   9     -8.8323531 -0.871776E-06  0.265E-03    1.54      13.3  T
  10     -8.8323532 -0.382749E-07  0.475E-04    1.54      74.5  T
  11     -8.8323532 -0.446761E-09  0.969E-05    1.54     365.0  T
     SCC iter.                  ...        0 min,  0.002 sec
     gradient                   ...        0 min,  0.001 sec
 * total energy  :    -8.6484981 Eh     change       -0.4191536E-02 Eh
   gradient norm :     0.0191440 Eh/α   predicted    -0.3476210E-02 ( -17.07%)
   displ. norm   :     0.2854730 α      lambda       -0.1980025E-02
   maximum displ.:     0.2478928 α      in ANC's #6, #3, #1, ...

........................................................................
.............................. CYCLE   23 ..............................
........................................................................
   1     -8.8263355 -0.882634E+01  0.101E+00    1.61       0.0  T
   2     -8.8263263  0.915187E-05  0.642E-01    1.62       1.0  T
   3     -8.8237939  0.253245E-02  0.398E-01    1.56       1.0  T
   4     -8.8261413 -0.234743E-02  0.130E-01    1.63       1.0  T
   5     -8.8263554 -0.214070E-03  0.565E-02    1.61       1.0  T
   6     -8.8263182  0.371715E-04  0.669E-02    1.62       1.0  T
   7     -8.8263668 -0.485327E-04  0.117E-02    1.61       3.0  T
   8     -8.8263684 -0.163581E-05  0.495E-03    1.61       7.1  T
   9     -8.8263682  0.158263E-06  0.539E-03    1.61       6.6  T
  10     -8.8263686 -0.328742E-06  0.873E-04    1.61      40.5  T
  11     -8.8263686 -0.119765E-07  0.262E-04    1.61     135.0  T
     SCC iter.                  ...        0 min,  0.001 sec
     gradient                   ...        0 min,  0.000 sec
 * total energy  :    -8.6497631 Eh     change       -0.1264913E-02 Eh
   gradient norm :     0.0173738 Eh/α   predicted    -0.1070692E-02 ( -15.35%)
   displ. norm   :     0.1583122 α      lambda       -0.7271823E-03
   maximum displ.:     0.1266285 α      in ANC's #6, #4, #9, ...

........................................................................
.............................. CYCLE   24 ..............................
........................................................................
   1     -8.8276205 -0.882762E+01  0.576E-01    1.66       0.0  T
   2     -8.8276240 -0.350314E-05  0.368E-01    1.67       1.0  T
   3     -8.8275885  0.355731E-04  0.648E-02    1.66       1.0  T
   4     -8.8276076 -0.191007E-04  0.426E-02    1.67       1.0  T
   5     -8.8276102 -0.261699E-05  0.382E-02    1.66       1.0  T
   6     -8.8276155 -0.531248E-05  0.325E-02    1.67       1.1  T
   7     -8.8276278 -0.123090E-04  0.356E-03    1.66       9.9  T
   8     -8.8276278  0.103507E-07  0.273E-03    1.67      13.0  T
   9     -8.8276279 -0.762467E-07  0.726E-04    1.67      48.7  T
  10     -8.8276279 -0.112964E-08  0.267E-04    1.67     132.3  T
     SCC iter.                  ...        0 min,  0.002 sec
     gradient                   ...        0 min,  0.000 sec
 * total energy  :    -8.6503108 Eh     change       -0.5476973E-03 Eh
   gradient norm :     0.0140399 Eh/α   predicted    -0.3727029E-03 ( -31.95%)
   displ. norm   :     0.1761363 α      lambda       -0.7398591E-03
   maximum displ.:     0.1175629 α      in ANC's #6, #4, #9, ...

........................................................................
.............................. CYCLE   25 ..............................
........................................................................
   1     -8.8316089 -0.883161E+01  0.642E-01    1.73       0.0  T
   2     -8.8315758  0.330860E-04  0.413E-01    1.73       1.0  T
   3     -8.8279638  0.361200E-02  0.482E-01    1.78       1.0  T
   4     -8.8316130 -0.364914E-02  0.499E-02    1.72       1.0  T
   5     -8.8316046  0.836024E-05  0.490E-02    1.74       1.0  T
   6     -8.8316108 -0.614536E-05  0.341E-02    1.73       1.0  T
   7     -8.8316191 -0.828601E-05  0.165E-02    1.73       2.1  T
   8     -8.8316234 -0.431419E-05  0.354E-03    1.73      10.0  T
   9     -8.8316234  0.138682E-08  0.233E-03    1.73      15.2  T
  10     -8.8316234 -0.504533E-07  0.147E-03    1.73      24.0  T
  11     -8.8316234 -0.224593E-07  0.439E-04    1.73      80.5  T
  12     -8.8316234 -0.352064E-08  0.451E-05    1.73     784.8  T
     SCC iter.                  ...        0 min,  0.002 sec
     gradient                   ...        0 min,  0.001 sec
 * total energy  :    -8.6507983 Eh     change       -0.4875848E-03 Eh
   gradient norm :     0.0069881 Eh/α   predicted    -0.3814065E-03 ( -21.78%)
   displ. norm   :     0.0992253 α      lambda       -0.1922629E-03
   maximum displ.:     0.0650449 α      in ANC's #4, #6, #10, ...

........................................................................
.............................. CYCLE   26 ..............................
........................................................................
   1     -8.8335820 -0.883358E+01  0.343E-01    1.76       0.0  T
   2     -8.8335569  0.251662E-04  0.223E-01    1.76       1.0  T
   3     -8.8316526  0.190432E-02  0.340E-01    1.79       1.0  T
   4     -8.8335617 -0.190917E-02  0.531E-02    1.76       1.0  T
   5     -8.8335850 -0.233047E-04  0.249E-02    1.77       1.4  T
   6     -8.8335833  0.174118E-05  0.195E-02    1.76       1.8  T
   7     -8.8335879 -0.457467E-05  0.764E-03    1.76       4.6  T
   8     -8.8335886 -0.727185E-06  0.151E-03    1.77      23.4  T
   9     -8.8335886  0.129700E-07  0.135E-03    1.77      26.3  T
  10     -8.8335886 -0.176436E-07  0.614E-04    1.77      57.6  T
  11     -8.8335886 -0.334321E-08  0.253E-04    1.77     139.8  T
     SCC iter.                  ...        0 min,  0.001 sec
     gradient                   ...        0 min,  0.000 sec
 * total energy  :    -8.6509154 Eh     change       -0.1170277E-03 Eh
   gradient norm :     0.0034163 Eh/α   predicted    -0.9707673E-04 ( -17.05%)
   displ. norm   :     0.0859810 α      lambda       -0.7295405E-04
   maximum displ.:     0.0633045 α      in ANC's #4, #7, #1, ...

........................................................................
.............................. CYCLE   27 ..............................
........................................................................
   1     -8.8341200 -0.883412E+01  0.281E-01    1.78       0.0  T
   2     -8.8341019  0.180771E-04  0.181E-01    1.78       1.0  T
   3     -8.8326491  0.145281E-02  0.296E-01    1.82       1.0  T
   4     -8.8341138 -0.146470E-02  0.343E-02    1.78       1.0  T
   5     -8.8341213 -0.752560E-05  0.212E-02    1.78       1.7  T
   6     -8.8341205  0.799800E-06  0.186E-02    1.78       1.9  T
   7     -8.8341236 -0.310946E-05  0.672E-03    1.78       5.3  T
   8     -8.8341243 -0.668951E-06  0.145E-03    1.78      24.3  T
   9     -8.8341243 -0.113585E-07  0.904E-04    1.78      39.1  T
  10     -8.8341243 -0.791452E-08  0.371E-04    1.78      95.4  T
     SCC iter.                  ...        0 min,  0.002 sec
     gradient                   ...        0 min,  0.001 sec
 * total energy  :    -8.6509519 Eh     change       -0.3656713E-04 Eh
   gradient norm :     0.0034362 Eh/α   predicted    -0.3674882E-04 (   0.50%)
   displ. norm   :     0.0743766 α      lambda       -0.5091455E-04
   maximum displ.:     0.0566209 α      in ANC's #4, #1, #2, ...

........................................................................
.............................. CYCLE   28 ..............................
........................................................................
   1     -8.8336039 -0.883360E+01  0.212E-01    1.79       0.0  T
   2     -8.8335986  0.535224E-05  0.136E-01    1.78       1.0  T
   3     -8.8330790  0.519574E-03  0.175E-01    1.81       1.0  T
   4     -8.8336017 -0.522652E-03  0.231E-02    1.78       1.5  T
   5     -8.8336039 -0.224634E-05  0.150E-02    1.79       2.4  T
   6     -8.8336040 -0.109345E-06  0.120E-02    1.78       3.0  T
   7     -8.8336053 -0.130177E-05  0.258E-03    1.79      13.7  T
   8     -8.8336054 -0.610838E-07  0.108E-03    1.79      32.7  T
   9     -8.8336054 -0.151864E-07  0.402E-04    1.79      87.9  T
  10     -8.8336054 -0.808274E-09  0.159E-04    1.79     221.8  T
     SCC iter.                  ...        0 min,  0.001 sec
     gradient                   ...        0 min,  0.000 sec
 * total energy  :    -8.6509908 Eh     change       -0.3886203E-04 Eh
   gradient norm :     0.0029301 Eh/α   predicted    -0.2559772E-04 ( -34.13%)
   displ. norm   :     0.1202555 α      lambda       -0.7802273E-04
   maximum displ.:     0.0917532 α      in ANC's #4, #2, #1, ...

........................................................................
.............................. CYCLE   29 ..............................
........................................................................
   1     -8.8338580 -0.883386E+01  0.306E-01    1.78       0.0  T
   2     -8.8338423  0.156123E-04  0.196E-01    1.77       1.0  T
   3     -8.8324469  0.139547E-02  0.305E-01    1.83       1.0  T
   4     -8.8338573 -0.141043E-02  0.265E-02    1.78       1.3  T
   5     -8.8338598 -0.248079E-05  0.179E-02    1.78       2.0  T
   6     -8.8338556  0.417731E-05  0.202E-02    1.78       1.8  T
   7     -8.8338610 -0.542059E-05  0.543E-03    1.78       6.5  T
   8     -8.8338614 -0.391917E-06  0.151E-03    1.78      23.4  T
   9     -8.8338614 -0.227024E-07  0.855E-04    1.78      41.4  T
  10     -8.8338614 -0.651608E-08  0.324E-04    1.78     109.2  T
     SCC iter.                  ...        0 min,  0.002 sec
     gradient                   ...        0 min,  0.000 sec
 * total energy  :    -8.6510452 Eh     change       -0.5439701E-04 Eh
   gradient norm :     0.0027565 Eh/α   predicted    -0.3957474E-04 ( -27.25%)
   displ. norm   :     0.1496451 α      lambda       -0.7189372E-04
   maximum displ.:     0.1143526 α      in ANC's #4, #2, #1, ...

........................................................................
.............................. CYCLE   30 ..............................
........................................................................
   1     -8.8325133 -0.883251E+01  0.431E-01    1.78       0.0  T
   2     -8.8325046  0.865911E-05  0.280E-01    1.77       1.0  T
   3     -8.8314582  0.104644E-02  0.269E-01    1.83       1.0  T
   4     -8.8325039 -0.104572E-02  0.404E-02    1.78       1.0  T
   5     -8.8325111 -0.717771E-05  0.292E-02    1.78       1.2  T
   6     -8.8325121 -0.101045E-05  0.221E-02    1.78       1.6  T
   7     -8.8325176 -0.551635E-05  0.521E-03    1.78       6.8  T
   8     -8.8325178 -0.228058E-06  0.214E-03    1.78      16.5  T
   9     -8.8325179 -0.356882E-07  0.131E-03    1.78      27.1  T
  10     -8.8325179 -0.191083E-07  0.304E-04    1.78     116.3  T
  11     -8.8325179 -0.108347E-09  0.207E-04    1.78     170.7  T
     SCC iter.                  ...        0 min,  0.002 sec
     gradient                   ...        0 min,  0.000 sec
 * total energy  :    -8.6510883 Eh     change       -0.4313309E-04 Eh
   gradient norm :     0.0045398 Eh/α   predicted    -0.3675224E-04 ( -14.79%)
   displ. norm   :     0.1129463 α      lambda       -0.5285692E-04
   maximum displ.:     0.0884876 α      in ANC's #4, #2, #5, ...

........................................................................
.............................. CYCLE   31 ..............................
........................................................................
   1     -8.8326622 -0.883266E+01  0.330E-01    1.77       0.0  T
   2     -8.8326599  0.235471E-05  0.215E-01    1.77       1.0  T
   3     -8.8323139  0.345996E-03  0.157E-01    1.81       1.0  T
   4     -8.8326562 -0.342274E-03  0.291E-02    1.77       1.2  T
   5     -8.8326598 -0.363486E-05  0.225E-02    1.77       1.6  T
   6     -8.8326614 -0.164079E-05  0.158E-02    1.77       2.2  T
   7     -8.8326644 -0.290905E-05  0.253E-03    1.77      14.0  T
   8     -8.8326644 -0.496862E-07  0.121E-03    1.77      29.3  T
   9     -8.8326644 -0.939315E-08  0.570E-04    1.77      62.0  T
  10     -8.8326644 -0.231865E-08  0.157E-04    1.77     225.6  T
     SCC iter.                  ...        0 min,  0.002 sec
     gradient                   ...        0 min,  0.001 sec
 * total energy  :    -8.6511319 Eh     change       -0.4361969E-04 Eh
   gradient norm :     0.0037518 Eh/α   predicted    -0.2676650E-04 ( -38.64%)
   displ. norm   :     0.2068537 α      lambda       -0.9972990E-04
   maximum displ.:     0.1640829 α      in ANC's #4, #2, #5, ...

........................................................................
.............................. CYCLE   32 ..............................
........................................................................
   1     -8.8338026 -0.883380E+01  0.603E-01    1.77       0.0  T
   2     -8.8338027 -0.891547E-07  0.399E-01    1.77       1.0  T
   3     -8.8335260  0.276654E-03  0.149E-01    1.81       1.0  T
   4     -8.8337715 -0.245477E-03  0.595E-02    1.76       1.0  T
   5     -8.8337958 -0.242811E-04  0.383E-02    1.78       1.0  T
   6     -8.8337928  0.299131E-05  0.321E-02    1.77       1.1  T
   7     -8.8338088 -0.159637E-04  0.491E-03    1.78       7.2  T
   8     -8.8338090 -0.254920E-06  0.213E-03    1.77      16.6  T
   9     -8.8338091 -0.225217E-07  0.787E-04    1.77      44.9  T
  10     -8.8338091 -0.113360E-08  0.309E-04    1.77     114.6  T
     SCC iter.                  ...        0 min,  0.001 sec
     gradient                   ...        0 min,  0.000 sec
 * total energy  :    -8.6511976 Eh     change       -0.6563781E-04 Eh
   gradient norm :     0.0041309 Eh/α   predicted    -0.5199803E-04 ( -20.78%)
   displ. norm   :     0.5655655 α      lambda       -0.2468891E-03
   maximum displ.:     0.4421021 α      in ANC's #4, #2, #5, ...

........................................................................
.............................. CYCLE   33 ..............................
........................................................................
   1     -8.8259536 -0.882595E+01  0.165E+00    1.76       0.0  T
   2     -8.8259701 -0.165012E-04  0.109E+00    1.76       1.0  T
   3     -8.8252476  0.722513E-03  0.290E-01    1.77       1.0  T
   4     -8.8258910 -0.643338E-03  0.126E-01    1.79       1.0  T
   5     -8.8257822  0.108719E-03  0.132E-01    1.74       1.0  T
   6     -8.8259248 -0.142539E-03  0.719E-02    1.78       1.0  T
   7     -8.8260069 -0.821126E-04  0.146E-02    1.77       2.4  T
   8     -8.8260082 -0.126524E-05  0.889E-03    1.77       4.0  T
   9     -8.8260085 -0.324999E-06  0.333E-03    1.77      10.6  T
  10     -8.8260086 -0.126508E-06  0.101E-03    1.77      35.2  T
  11     -8.8260086 -0.231741E-08  0.164E-04    1.77     215.0  T
  12     -8.8260086 -0.156527E-09  0.426E-05    1.77     830.1  T
     SCC iter.                  ...        0 min,  0.001 sec
     gradient                   ...        0 min,  0.000 sec
 * total energy  :    -8.6508144 Eh     change        0.3831362E-03 Eh
   gradient norm :     0.0190970 Eh/α   predicted    -0.1629283E-03 (-142.52%)
   displ. norm   :     0.2725134 α      lambda       -0.1163804E-02
   maximum displ.:     0.1969303 α      in ANC's #4, #2, #5, ...

........................................................................
.............................. CYCLE   34 ..............................
........................................................................
   1     -8.8334113 -0.883341E+01  0.808E-01    1.78       0.0  T
   2     -8.8334082  0.306493E-05  0.532E-01    1.78       1.0  T
   3     -8.8327123  0.695912E-03  0.253E-01    1.79       1.0  T
   4     -8.8333775 -0.665163E-03  0.743E-02    1.77       1.0  T
   5     -8.8334139 -0.364328E-04  0.484E-02    1.79       1.0  T
   6     -8.8334098  0.409702E-05  0.337E-02    1.78       1.0  T
   7     -8.8334273 -0.174821E-04  0.845E-03    1.78       4.2  T
   8     -8.8334280 -0.757235E-06  0.458E-03    1.78       7.7  T
   9     -8.8334282 -0.127072E-06  0.118E-03    1.78      29.9  T
  10     -8.8334282 -0.593204E-08  0.503E-04    1.78      70.2  T
  11     -8.8334282 -0.550141E-09  0.798E-05    1.78     442.9  T
     SCC iter.                  ...        0 min,  0.001 sec
     gradient                   ...        0 min,  0.001 sec
 * total energy  :    -8.6512768 Eh     change       -0.4623664E-03 Eh
   gradient norm :     0.0034692 Eh/α   predicted    -0.6251184E-03 (  35.20%)
   displ. norm   :     0.0315148 α      lambda       -0.3555057E-04
   maximum displ.:     0.0182904 α      in ANC's #3, #1, #6, ...

........................................................................
.............................. CYCLE   35 ..............................
........................................................................
   1     -8.8337168 -0.883372E+01  0.799E-02    1.78       0.0  T
   2     -8.8337149  0.190657E-05  0.502E-02    1.79       1.0  T
   3     -8.8335835  0.131375E-03  0.851E-02    1.77       1.0  T
   4     -8.8337159 -0.132465E-03  0.115E-02    1.79       3.1  T
   5     -8.8337170 -0.107890E-05  0.412E-03    1.78       8.6  T
   6     -8.8337171 -0.989877E-07  0.256E-03    1.78      13.8  T
   7     -8.8337171 -0.145068E-07  0.141E-03    1.78      25.2  T
   8     -8.8337172 -0.196283E-07  0.673E-04    1.78      52.6  T
   9     -8.8337172 -0.471321E-08  0.135E-04    1.78     261.7  T
     SCC iter.                  ...        0 min,  0.001 sec
     gradient                   ...        0 min,  0.001 sec
 * total energy  :    -8.6512999 Eh     change       -0.2312844E-04 Eh
   gradient norm :     0.0014373 Eh/α   predicted    -0.1779145E-04 ( -23.08%)
   displ. norm   :     0.1457537 α      lambda       -0.3212297E-04
   maximum displ.:     0.1147948 α      in ANC's #4, #2, #5, ...

........................................................................
.............................. CYCLE   36 ..............................
........................................................................
   1     -8.8319205 -0.883192E+01  0.418E-01    1.78       0.0  T
   2     -8.8319042  0.163359E-04  0.285E-01    1.79       1.0  T
   3     -8.8297233  0.218092E-02  0.359E-01    1.72       1.0  T
   4     -8.8318933 -0.217000E-02  0.482E-02    1.79       1.0  T
   5     -8.8319223 -0.290186E-04  0.247E-02    1.78       1.4  T
   6     -8.8319213  0.100096E-05  0.196E-02    1.78       1.8  T
   7     -8.8319244 -0.305024E-05  0.890E-03    1.78       4.0  T
   8     -8.8319256 -0.124813E-05  0.132E-03    1.78      26.8  T
   9     -8.8319256  0.320479E-08  0.957E-04    1.78      37.0  T
  10     -8.8319256 -0.739280E-08  0.403E-04    1.78      87.7  T
     SCC iter.                  ...        0 min,  0.002 sec
     gradient                   ...        0 min,  0.001 sec
 * total energy  :    -8.6513159 Eh     change       -0.1590862E-04 Eh
   gradient norm :     0.0033269 Eh/α   predicted    -0.1621249E-04 (   1.91%)
   displ. norm   :     0.0216737 α      lambda       -0.1580853E-04
   maximum displ.:     0.0146700 α      in ANC's #4, #3, #1, ...

........................................................................
.............................. CYCLE   37 ..............................
........................................................................
   1     -8.8326035 -0.883260E+01  0.558E-02    1.78       0.0  T
   2     -8.8326032  0.349254E-06  0.365E-02    1.78       1.0  T
   3     -8.8325792  0.239914E-04  0.389E-02    1.78       1.0  T
   4     -8.8326024 -0.232066E-04  0.105E-02    1.78       3.4  T
   5     -8.8326036 -0.121274E-05  0.383E-03    1.78       9.2  T
   6     -8.8326035  0.104370E-06  0.401E-03    1.78       8.8  T
   7     -8.8326037 -0.176737E-06  0.576E-04    1.78      61.4  T
   8     -8.8326037 -0.315745E-08  0.204E-04    1.78     172.9  T
     SCC iter.                  ...        0 min,  0.001 sec
     gradient                   ...        0 min,  0.001 sec
 * total energy  :    -8.6513271 Eh     change       -0.1128197E-04 Eh
   gradient norm :     0.0017909 Eh/α   predicted    -0.7908196E-05 ( -29.90%)
   displ. norm   :     0.0523435 α      lambda       -0.1041886E-04
   maximum displ.:     0.0462039 α      in ANC's #4, #2, #9, ...

........................................................................
.............................. CYCLE   38 ..............................
........................................................................
   1     -8.8335690 -0.883357E+01  0.157E-01    1.78       0.0  T
   2     -8.8335652  0.382572E-05  0.107E-01    1.78       1.0  T
   3     -8.8332247  0.340538E-03  0.136E-01    1.77       1.0  T
   4     -8.8335568 -0.332168E-03  0.328E-02    1.78       1.1  T
   5     -8.8335699 -0.130315E-04  0.899E-03    1.78       3.9  T
   6     -8.8335698  0.463486E-07  0.687E-03    1.78       5.1  T
   7     -8.8335702 -0.345193E-06  0.218E-03    1.78      16.2  T
   8     -8.8335702 -0.606344E-07  0.821E-04    1.78      43.1  T
   9     -8.8335702 -0.611224E-08  0.286E-04    1.78     123.7  T
     SCC iter.                  ...        0 min,  0.002 sec
     gradient                   ...        0 min,  0.001 sec
 * total energy  :    -8.6513349 Eh     change       -0.7746550E-05 Eh
   gradient norm :     0.0009202 Eh/α   predicted    -0.5217202E-05 ( -32.65%)
   displ. norm   :     0.0354666 α      lambda       -0.3488429E-05
   maximum displ.:     0.0268190 α      in ANC's #4, #2, #5, ...

........................................................................
.............................. CYCLE   39 ..............................
........................................................................
   1     -8.8333124 -0.883331E+01  0.106E-01    1.77       0.0  T
   2     -8.8333118  0.531308E-06  0.715E-02    1.77       1.0  T
   3     -8.8332414  0.703953E-04  0.626E-02    1.77       1.0  T
   4     -8.8333103 -0.688576E-04  0.135E-02    1.78       2.6  T
   5     -8.8333123 -0.200062E-05  0.709E-03    1.77       5.0  T
   6     -8.8333126 -0.268100E-06  0.392E-03    1.77       9.0  T
   7     -8.8333126 -0.709941E-07  0.522E-04    1.77      67.7  T
   8     -8.8333126 -0.620476E-09  0.432E-04    1.77      81.8  T
     SCC iter.                  ...        0 min,  0.002 sec
     gradient                   ...        0 min,  0.000 sec
 * total energy  :    -8.6513391 Eh     change       -0.4182197E-05 Eh
   gradient norm :     0.0004833 Eh/α   predicted    -0.1745674E-05 ( -58.26%)
   displ. norm   :     0.0768971 α      lambda       -0.5400624E-05
   maximum displ.:     0.0529446 α      in ANC's #4, #5, #2, ...

   *** GEOMETRY OPTIMIZATION CONVERGED AFTER 39 ITERATIONS ***

------------------------------------------------------------------------
 total energy gain   :        -0.5034381 Eh     -315.9122 kcal/mol
 total RMSD          :         1.8288334 a0        0.9678 Å
 total power (kW/mol):       -33.8917076 (step)********** (real)
------------------------------------------------------------------------

 ANCopt (total)                0 d,  0 h,  0 min,  0.103 sec
 optimizer setup                ...        0 min,  0.000 sec (  0.025%)
 model hessian                  ...        0 min,  0.000 sec (  0.157%)
 ANC generation                 ...        0 min,  0.000 sec (  0.069%)
 coordinate transformation      ...        0 min,  0.000 sec (  0.115%)
 single point calculation       ...        0 min,  0.099 sec ( 96.229%)
 optimization log               ...        0 min,  0.001 sec (  1.174%)
 hessian update                 ...        0 min,  0.001 sec (  0.848%)
 rational function              ...        0 min,  0.001 sec (  0.688%)

================
 final structure:
================
8
 xtb: 6.5.1 (conda-forge)
Be           0.22964005533300       -0.03272102354443        0.69105460970564
B            1.87716146389290       -0.03693318493858        1.28049383547510
B           -0.43802547985753       -0.03322898878171        2.25162000986552
C            2.29008043076822       -0.03751168573838        2.67588098074400
C            0.90421599604198       -0.03526347160144        2.66980326973257
H            3.02362627300057       -0.03532289324172        3.45781552261827
H            0.38350238339470        0.51866382301917        5.74655204512894
H            0.35379887742598        0.39726242482733        4.97027972673011

 Bond Distances (Angstroems)
 ---------------------------
Be1-B2=1.7498        Be1-B3=1.6974        Be1-C5=2.0906        B2-Be1=1.7498        B2-C4=1.4552         B2-C5=1.6961         
B3-Be1=1.6974        B3-C5=1.4059         C4-B2=1.4552         C4-C5=1.3859         C4-H6=1.0722         C5-Be1=2.0906        
C5-B2=1.6961         C5-B3=1.4059         C5-C4=1.3859         H6-C4=1.0722         H7-H8=0.7863         H8-H7=0.7863         
 H  H  Rav=0.7863 sigma=0.0000  Rmin=0.7863  Rmax=0.7863     1
 B  Be Rav=1.7236 sigma=0.0262  Rmin=1.6974  Rmax=1.7498     2
 C  H  Rav=1.0722 sigma=0.0000  Rmin=1.0722  Rmax=1.0722     1
 C  Be Rav=2.0906 sigma=0.0000  Rmin=2.0906  Rmax=2.0906     1
 C  B  Rav=1.5191 sigma=0.1268  Rmin=1.4059  Rmax=1.6961     3
 C  C  Rav=1.3859 sigma=0.0000  Rmin=1.3859  Rmax=1.3859     1

 selected bond angles (degree)
 --------------------
B3-Be1-B2= 93.48               C5-Be1-B2= 51.49               C5-Be1-B3= 41.99               C4-B2-Be1=126.17               
C5-B2-Be1= 74.68               C5-B2-C4= 51.49                C5-B3-Be1= 84.14               C5-C4-B2= 73.26                
H6-C4-B2=153.31                H6-C4-C5=133.42                B2-C5-Be1= 53.83               B3-C5-Be1= 53.87               
B3-C5-B2=107.70                C4-C5-Be1=109.08               C4-C5-B2= 55.25                C4-C5-B3=162.95                

 selected dihedral angles (degree)
 ---------------------------------
C4-B2-Be1-B3=359.90           C4-B2-Be1-C5=359.95           C5-B2-Be1-B3=359.95           C5-B3-Be1-B2=  0.05           
C5-C4-B2-Be1=  0.06           H6-C4-B2-Be1=180.46           H6-C4-B2-C5=180.40            B2-C5-Be1-B3=179.93           
B3-C5-Be1-B2=180.07           C4-C5-Be1-B2=  0.05           C4-C5-Be1-B3=179.98           Be1-C5-B2-C4=179.95           
B3-C5-B2-Be1=  0.06           B3-C5-B2-C4=180.00            C4-C5-B2-Be1=180.05           B2-C5-B3-Be1=359.94           
C4-C5-B3-Be1=359.93           Be1-C5-C4-B2=359.95           Be1-C5-C4-H6=179.71           B2-C5-C4-H6=179.76            
B3-C5-C4-B2=  0.00            B3-C5-C4-H6=179.77            

 CMA Distance (Angstroems)
 ---------------------------
R(CMA):  1.2924
           -------------------------------------------------
          |                Final Singlepoint                |
           -------------------------------------------------

          ...................................................
          :                      SETUP                      :
          :.................................................:
          :  # basis functions                  23          :
          :  # atomic orbitals                  23          :
          :  # shells                           13          :
          :  # electrons                        19          :
          :  max. iterations                   250          :
          :  Hamiltonian                  GFN2-xTB          :
          :  restarted?                      false          :
          :  GBSA solvation                  false          :
          :  PC potential                    false          :
          :  electronic temp.          300.0000000     K    :
          :  accuracy                    1.0000000          :
          :  -> integral cutoff          0.2500000E+02      :
          :  -> integral neglect         0.1000000E-07      :
          :  -> SCF convergence          0.1000000E-05 Eh   :
          :  -> wf. convergence          0.1000000E-03 e    :
          :  Broyden damping             0.4000000          :
          ...................................................

 iter      E             dE          RMSdq      gap      omega  full diag
   1     -8.8333126 -0.883331E+01  0.165E-04    1.77       0.0  T
   2     -8.8333126  0.985043E-10  0.133E-04    1.77     265.8  T
   3     -8.8333126  0.770335E-10  0.159E-04    1.77     222.7  T

   *** convergence criteria satisfied after 3 iterations ***

         #    Occupation            Energy/Eh            Energy/eV
      -------------------------------------------------------------
         1        2.0000           -0.5434151             -14.7871
       ...           ...                  ...                  ...
         4        2.0000           -0.4234022             -11.5214
         5        2.0000           -0.3981166             -10.8333
         6        2.0000           -0.3711398             -10.0992
         7        2.0000           -0.3385705              -9.2130
         8        2.0000           -0.3160040              -8.5989
         9        2.0000           -0.2870203              -7.8102
        10        1.0000           -0.2484005              -6.7593 (HOMO)
        11                         -0.1832036              -4.9852 (LUMO)
        12                         -0.1803532              -4.9077
        13                         -0.1394353              -3.7942
        14                         -0.0783372              -2.1317
        15                         -0.0061349              -0.1669
       ...                                ...                  ...
        23                          1.3835774              37.6491
      -------------------------------------------------------------
                  HL-Gap            0.0651968 Eh            1.7741 eV
             Fermi-level           -0.2417562 Eh           -6.5785 eV

 SCC (total)                   0 d,  0 h,  0 min,  0.002 sec
 SCC setup                      ...        0 min,  0.000 sec (  2.037%)
 Dispersion                     ...        0 min,  0.000 sec (  4.415%)
 classical contributions        ...        0 min,  0.000 sec (  4.657%)
 integral evaluation            ...        0 min,  0.000 sec (  6.395%)
 iterations                     ...        0 min,  0.001 sec ( 35.437%)
 molecular gradient             ...        0 min,  0.001 sec ( 41.590%)
 printout                       ...        0 min,  0.000 sec (  4.657%)

         :::::::::::::::::::::::::::::::::::::::::::::::::::::
         ::                     SUMMARY                     ::
         :::::::::::::::::::::::::::::::::::::::::::::::::::::
         :: total energy              -8.651339062895 Eh    ::
         :: gradient norm              0.000484849791 Eh/a0 ::
         :: HOMO-LUMO gap              1.774095959697 eV    ::
         ::.................................................::
         :: SCC energy                -8.833312638957 Eh    ::
         :: -> isotropic ES           -0.009885948775 Eh    ::
         :: -> anisotropic ES          0.005308401847 Eh    ::
         :: -> anisotropic XC         -0.011264956869 Eh    ::
         :: -> dispersion             -0.003629462014 Eh    ::
         :: repulsion energy           0.181972089141 Eh    ::
         :: add. restraining           0.000000000000 Eh    ::
         :: total charge               0.000000000000 e     ::
         :::::::::::::::::::::::::::::::::::::::::::::::::::::

           -------------------------------------------------
          |                Property Printout                |
           -------------------------------------------------

    * Orbital Energies and Occupations

         #    Occupation            Energy/Eh            Energy/eV
      -------------------------------------------------------------
         1        2.0000           -0.5434151             -14.7871
         2        2.0000           -0.4779530             -13.0058
         3        2.0000           -0.4454233             -12.1206
         4        2.0000           -0.4234022             -11.5214
         5        2.0000           -0.3981166             -10.8333
         6        2.0000           -0.3711398             -10.0992
         7        2.0000           -0.3385705              -9.2130
         8        2.0000           -0.3160040              -8.5989
         9        2.0000           -0.2870203              -7.8102
        10        1.0000           -0.2484005              -6.7593 (HOMO)
        11                         -0.1832036              -4.9852 (LUMO)
        12                         -0.1803532              -4.9077
        13                         -0.1394353              -3.7942
        14                         -0.0783372              -2.1317
        15                         -0.0061349              -0.1669
        16                         -0.0025544              -0.0695
        17                          0.1509831               4.1085
        18                          0.1839450               5.0054
        19                          0.3420945               9.3089
        20                          0.3925668              10.6823
        21                          0.6182662              16.8239
       ...                                ...                  ...
        23                          1.3835774              37.6491
      -------------------------------------------------------------
                  HL-Gap            0.0651968 Eh            1.7741 eV
             Fermi-level           -0.2417562 Eh           -6.5785 eV

     #   Z          covCN         q      C6AA      α(0)
     1   4 Be       2.476     0.369    14.998     8.940
     2   5 B        2.692     0.031    21.147     7.720
     3   5 B        1.826    -0.023    45.430    14.198
     4   6 C        2.815    -0.134    31.409     9.182
     5   6 C        3.414    -0.203    28.368     8.180
     6   1 H        0.926    -0.023     3.497     2.924
     7   1 H        0.782    -0.031     3.738     3.042
     8   1 H        0.782     0.014     2.898     2.678

 Mol. C6AA /au·bohr⁶  :        973.551561
 Mol. C8AA /au·bohr⁸  :      29802.462697
 Mol. α(0) /au        :         56.865882


Wiberg/Mayer (AO) data.
largest (>0.10) Wiberg bond orders for each atom

 ---------------------------------------------------------------------------
     #   Z sym  total        # sym  WBO       # sym  WBO       # sym  WBO
 ---------------------------------------------------------------------------
     1   4 Be   2.037 --     3 B    1.003     2 B    0.920     5 C    0.100
     2   5 B    3.132 --     4 C    1.327     1 Be   0.920     5 C    0.635
                             3 B    0.239
     3   5 B    2.942 --     5 C    1.647     1 Be   1.003     2 B    0.239
     4   6 C    3.670 --     5 C    1.337     2 B    1.327     6 H    0.969
     5   6 C    3.743 --     3 B    1.647     4 C    1.337     2 B    0.635
                             1 Be   0.100
     6   1 H    0.999 --     4 C    0.969
     7   1 H    0.999 --     8 H    0.980
     8   1 H    1.000 --     7 H    0.980
 ---------------------------------------------------------------------------

Topologies differ in total number of bonds
Writing topology from bond orders to xtbtopo.mol

molecular dipole:
                 x           y           z       tot (Debye)
 q only:       -0.785      -0.019      -1.597
   full:       -0.501      -0.017      -1.000       2.842
molecular quadrupole (traceless):
                xx          xy          yy          xz          yz          zz
 q only:        2.372       0.059       7.488      -7.731      -0.197      -9.859
  q+dip:        0.899       0.042       2.274      -1.563      -0.062      -3.173
   full:       -3.342       0.054       7.032      -0.850      -0.177      -3.690

           -------------------------------------------------
          |                Geometry Summary                 |
           -------------------------------------------------

      molecular mass/u    :       57.6795332
   center of mass at/Å    :        1.0364984      -0.0180289       2.1308513
  moments of inertia/u·Å² :        0.5252133E+02   0.6600462E+02   0.1179754E+03
rotational constants/cm⁻¹ :        0.3209674E+00   0.2554008E+00   0.1428910E+00

 * 7 selected distances

     #   Z          #   Z                                           value/Å
     1   4 Be       2   5 B                                       1.7497953 (max)
     1   4 Be       3   5 B                                       1.6973928
     2   5 B        4   6 C                                       1.4552004
     3   5 B        5   6 C                                       1.4058783
     4   6 C        5   6 C                                       1.3858797
     4   6 C        6   1 H                                       1.0721549
normal termination of xtb
     7   1 H        8   1 H                                       0.7862693 (min)

 * 5 distinct bonds (by element types)

   Z      Z             #   av. dist./Å        max./Å        min./Å
   1 H    1 H           1     0.7862693     0.7862693     0.7862693
   4 Be   5 B           2     1.7235941     1.7497953     1.6973928
   1 H    6 C           1     1.0721549     1.0721549     1.0721549
   5 B    6 C           2     1.4305394     1.4552004     1.4058783
   6 C    6 C           1     1.3858797     1.3858797     1.3858797


optimized geometry written to: xtbopt.xyz


           -------------------------------------------------
          | TOTAL ENERGY               -8.651339062895 Eh   |
          | GRADIENT NORM               0.000484849791 Eh/α |
          | HOMO-LUMO GAP               1.774095959697 eV   |
           -------------------------------------------------
########################################################################
[WARNING] Runtime exception occurred
-2- restart_readRestart: Dimension missmatch in restart file.
-1- restart_readRestart: Number of electron missmatch in restart file.
########################################################################

------------------------------------------------------------------------
 * finished run on 2025/06/07 at 03:27:40.791     
------------------------------------------------------------------------
 total:
 * wall-time:     0 d,  0 h,  0 min,  0.120 sec
 *  cpu-time:     0 d,  0 h,  0 min,  1.769 sec
 * ratio c/w:    14.711 speedup
 SCF:
 * wall-time:     0 d,  0 h,  0 min,  0.012 sec
 *  cpu-time:     0 d,  0 h,  0 min,  0.166 sec
 * ratio c/w:    14.134 speedup
 ANC optimizer:
 * wall-time:     0 d,  0 h,  0 min,  0.105 sec
 *  cpu-time:     0 d,  0 h,  0 min,  1.570 sec
 * ratio c/w:    14.890 speedup

