      -----------------------------------------------------------      
     |                   =====================                   |     
     |                           x T B                           |     
     |                   =====================                   |     
     |                         S. Grimme                         |     
     |          Mulliken Center for Theoretical Chemistry        |     
     |                    University of Bonn                     |     
      -----------------------------------------------------------      

   * xtb version 6.5.1 (conda-forge) compiled by 'runner@Mac-1657629245115.local' on 2022-07-12

   xtb is free software: you can redistribute it and/or modify it under
   the terms of the GNU Lesser General Public License as published by
   the Free Software Foundation, either version 3 of the License, or
   (at your option) any later version.
   
   xtb is distributed in the hope that it will be useful,
   but WITHOUT ANY WARRANTY; without even the implied warranty of
   MERCHANTABILITY or FITNESS FOR A PARTICULAR PURPOSE.  See the
   GNU Lesser General Public License for more details.
   
   Cite this work as:
   * C. Bannwarth, E. Caldeweyher, S. Ehlert, A. Hansen, P. Pracht,
     J. Seibert, S. Spicher, S. Grimme, WIREs Comput. Mol. Sci., 2020, 11,
     e01493. DOI: 10.1002/wcms.1493
   
   for GFN2-xTB:
   * C. Bannwarth, S. Ehlert and S. Grimme., J. Chem. Theory Comput., 2019,
     15, 1652-1671. DOI: 10.1021/acs.jctc.8b01176
   for GFN1-xTB:
   * S. Grimme, C. Bannwarth, P. Shushkov, J. Chem. Theory Comput., 2017,
     13, 1989-2009. DOI: 10.1021/acs.jctc.7b00118
   for GFN0-xTB:
   * P. Pracht, E. Caldeweyher, S. Ehlert, S. Grimme, ChemRxiv, 2019, preprint.
     DOI: 10.26434/chemrxiv.8326202.v1
   for GFN-FF:
   * S. Spicher and S. Grimme, Angew. Chem. Int. Ed., 2020, 59, 15665-15673.
     DOI: 10.1002/anie.202004239
   
   for ALPB and GBSA implicit solvation:
   * S. Ehlert, M. Stahn, S. Spicher, S. Grimme, J. Chem. Theory Comput.,
     2021, 17, 4250-4261. DOI: 10.1021/acs.jctc.1c00471
   
   for DFT-D4:
   * E. Caldeweyher, C. Bannwarth and S. Grimme, J. Chem. Phys., 2017,
     147, 034112. DOI: 10.1063/1.4993215
   * E. Caldeweyher, S. Ehlert, A. Hansen, H. Neugebauer, S. Spicher,
     C. Bannwarth and S. Grimme, J. Chem. Phys., 2019, 150, 154122.
     DOI: 10.1063/1.5090222
   * E. Caldeweyher, J.-M. Mewes, S. Ehlert and S. Grimme, Phys. Chem. Chem. Phys.
     2020, 22, 8499-8512. DOI: 10.1039/D0CP00502A
   
   for sTDA-xTB:
   * S. Grimme and C. Bannwarth, J. Chem. Phys., 2016, 145, 054103.
     DOI: 10.1063/1.4959605
   
   in the mass-spec context:
   * V. Asgeirsson, C. Bauer and S. Grimme, Chem. Sci., 2017, 8, 4879.
     DOI: 10.1039/c7sc00601b
   * J. Koopman and S. Grimme, ACS Omega 2019, 4, 12, 15120-15133.
     DOI: 10.1021/acsomega.9b02011
   
   for metadynamics refer to:
   * S. Grimme, J. Chem. Theory Comput., 2019, 155, 2847-2862
     DOI: 10.1021/acs.jctc.9b00143
   
   for SPH calculations refer to:
   * S. Spicher and S. Grimme, J. Chem. Theory Comput., 2021, 17, 1701-1714
     DOI: 10.1021/acs.jctc.0c01306
   
   with help from (in alphabetical order)
   P. Atkinson, C. Bannwarth, F. Bohle, G. Brandenburg, E. Caldeweyher
   M. Checinski, S. Dohm, S. Ehlert, S. Ehrlich, I. Gerasimov, C. Hölzer
   A. Katbashev, J. Koopman, C. Lavigne, S. Lehtola, F. März, M. Müller,
   F. Musil, H. Neugebauer, J. Pisarek, C. Plett, P. Pracht, F. Pultar,
   J. Seibert, P. Shushkov, S. Spicher, M. Stahn, M. Steiner, T. Strunk,
   J. Stückrath, T. Rose, and J. Unsleber
   
 * started run on 2025/06/07 at 03:27:41.450     

           -------------------------------------------------
          |                Calculation Setup                |
           -------------------------------------------------

          program call               : xtb B2BeC3H5.xyz --gfn 2 --opt
          coordinate file            : B2BeC3H5.xyz
          omp threads                :                    16

   ID    Z sym.   atoms
    1    4 Be     1
    2    5 B      2, 3
    3    6 C      4-6
    4    1 H      7-11

molecular fragmentation (1/2 indicates fragments):
11122222222
# atoms in fragment 1/2:     3     8
 fragment masses (1/2) :       30.63       41.07
CMA distance (Bohr)    :   5.602
constraining FC (au)   :  0.0500

           -------------------------------------------------
          |                 G F N 2 - x T B                 |
           -------------------------------------------------

        Reference                      10.1021/acs.jctc.8b01176
      * Hamiltonian:
        H0-scaling (s, p, d)           1.850000    2.230000    2.230000
        zeta-weighting                 0.500000
      * Dispersion:
        s8                             2.700000
        a1                             0.520000
        a2                             5.000000
        s9                             5.000000
      * Repulsion:
        kExp                           1.500000    1.000000
        rExp                           1.000000
      * Coulomb:
        alpha                          2.000000
        third order                    shell-resolved
        anisotropic                    true
        a3                             3.000000
        a5                             4.000000
        cn-shift                       1.200000
        cn-exp                         4.000000
        max-rad                        5.000000


          ...................................................
          :                      SETUP                      :
          :.................................................:
          :  # basis functions                  29          :
          :  # atomic orbitals                  29          :
          :  # shells                           17          :
          :  # electrons                        25          :
          :  max. iterations                   250          :
          :  Hamiltonian                  GFN2-xTB          :
          :  restarted?                      false          :
          :  GBSA solvation                  false          :
          :  PC potential                    false          :
          :  electronic temp.          300.0000000     K    :
          :  accuracy                    1.0000000          :
          :  -> integral cutoff          0.2500000E+02      :
          :  -> integral neglect         0.1000000E-07      :
          :  -> SCF convergence          0.1000000E-05 Eh   :
          :  -> wf. convergence          0.1000000E-03 e    :
          :  Broyden damping             0.4000000          :
          ...................................................

 iter      E             dE          RMSdq      gap      omega  full diag
   1      9.2587736  0.925877E+01  0.220E+01    0.45       0.0  T
   2     -5.9813125 -0.152401E+02  0.223E+01    0.70       1.0  T
   3     -6.4755634 -0.494251E+00  0.150E+01    0.76       1.0  T
   4     -5.3020504  0.117351E+01  0.173E+01    0.14       1.0  T
   5     -7.7657856 -0.246374E+01  0.114E+01    0.38       1.0  T
   6     -1.1989987  0.656679E+01  0.158E+01    1.06       1.0  T
   7     -9.6976653 -0.849867E+01  0.860E+00    0.82       1.0  T
   8     -9.7990798 -0.101415E+00  0.851E+00    0.87       1.0  T
   9     -9.7965303  0.254955E-02  0.852E+00    0.87       1.0  T
  10     -9.3653460  0.431184E+00  0.849E+00    0.74       1.0  T
  11    -10.1241816 -0.758836E+00  0.715E+00    0.79       1.0  T
  12     -9.9180256  0.206156E+00  0.807E+00    0.03       1.0  T
  13    -10.8130193 -0.894994E+00  0.422E+00    0.75       1.0  T
  14      2.5036989  0.133167E+02  0.165E+01    0.33       1.0  T
  15    -11.0058106 -0.135095E+02  0.634E+00    0.12       1.0  T
  16    -11.0852199 -0.794093E-01  0.487E+00    0.57       1.0  T
  17    -10.9973916  0.878283E-01  0.423E+00    0.65       1.0  T
  18    -10.1399774  0.857414E+00  0.430E+00    0.81       1.0  T
  19    -10.7666782 -0.626701E+00  0.326E+00    0.77       1.0  T
  20    -10.9178182 -0.151140E+00  0.394E+00    0.73       1.0  T
  21    -10.8939356  0.238826E-01  0.427E+00    0.75       1.0  T
  22    -10.9133241 -0.193885E-01  0.426E+00    0.75       1.0  T
  23    -10.9307338 -0.174097E-01  0.409E+00    0.74       1.0  T
  24    -10.9663904 -0.356566E-01  0.386E+00    0.73       1.0  T
  25    -10.9762413 -0.985094E-02  0.380E+00    0.73       1.0  T
  26    -11.0434094 -0.671681E-01  0.336E+00    0.70       1.0  T
  27    -11.0394637  0.394575E-02  0.337E+00    0.70       1.0  T
  28    -10.9596836  0.797801E-01  0.366E+00    0.74       1.0  T
  29    -11.0082817 -0.485982E-01  0.332E+00    0.72       1.0  T
  30    -11.1041006 -0.958189E-01  0.266E+00    0.66       1.0  T
  31    -11.1536565 -0.495559E-01  0.144E+00    0.57       1.0  T
  32    -11.1456253  0.803124E-02  0.124E+00    0.52       1.0  T
  33    -11.1459085 -0.283149E-03  0.128E+00    0.52       1.0  T
  34    -11.1240168  0.218917E-01  0.149E+00    0.64       1.0  T
  35    -11.1489067 -0.248900E-01  0.821E-01    0.60       1.0  T
  36    -11.1511468 -0.224010E-02  0.437E-01    0.59       1.0  T
  37    -11.1539508 -0.280400E-02  0.182E-01    0.58       1.0  T
  38    -11.1540020 -0.511330E-04  0.151E-01    0.58       1.0  T
  39    -11.1545737 -0.571708E-03  0.102E-01    0.58       1.0  T
  40    -11.1546941 -0.120376E-03  0.753E-02    0.57       1.0  T
  41    -11.1546738  0.202899E-04  0.577E-02    0.57       1.0  T
  42    -11.1546992 -0.254091E-04  0.201E-02    0.57       1.5  T
  43    -11.1546995 -0.337442E-06  0.117E-02    0.57       2.6  T
  44    -11.1546967  0.281608E-05  0.913E-03    0.57       3.3  T
  45    -11.1546973 -0.614843E-06  0.103E-02    0.57       2.9  T
  46    -11.1546987 -0.142718E-05  0.653E-03    0.57       4.6  T
  47    -11.1546998 -0.110446E-05  0.313E-03    0.57       9.6  T
  48    -11.1546998  0.174040E-07  0.228E-03    0.57      13.2  T
  49    -11.1546999 -0.614533E-07  0.113E-03    0.57      26.6  T
  50    -11.1546999 -0.153343E-07  0.806E-04    0.57      37.4  T
  51    -11.1546999 -0.114389E-07  0.378E-04    0.57      79.7  T

   *** convergence criteria satisfied after 51 iterations ***

         #    Occupation            Energy/Eh            Energy/eV
      -------------------------------------------------------------
         1        2.0000           -0.5791027             -15.7582
       ...           ...                  ...                  ...
         7        2.0000           -0.3592340              -9.7753
         8        2.0000           -0.3388647              -9.2210
         9        2.0000           -0.3250479              -8.8450
        10        2.0000           -0.3177405              -8.6462
        11        2.0000           -0.3094360              -8.4202
        12        1.8661           -0.2834638              -7.7134
        13        1.1339           -0.2799170              -7.6169 (HOMO)
        14        0.0000           -0.2589368              -7.0460 (LUMO)
        15                         -0.2394091              -6.5147
        16                         -0.2341037              -6.3703
        17                         -0.2106572              -5.7323
        18                         -0.1973738              -5.3708
       ...                                ...                  ...
        29                          0.6486010              17.6493
      -------------------------------------------------------------
                  HL-Gap            0.0209802 Eh            0.5709 eV
             Fermi-level           -0.2755530 Eh           -7.4982 eV

 SCC (total)                   0 d,  0 h,  0 min,  0.011 sec
 SCC setup                      ...        0 min,  0.000 sec (  2.458%)
 Dispersion                     ...        0 min,  0.000 sec (  1.228%)
 classical contributions        ...        0 min,  0.000 sec (  1.883%)
 integral evaluation            ...        0 min,  0.000 sec (  1.408%)
 iterations                     ...        0 min,  0.010 sec ( 89.124%)
 molecular gradient             ...        0 min,  0.000 sec (  3.428%)
 printout                       ...        0 min,  0.000 sec (  0.306%)

         :::::::::::::::::::::::::::::::::::::::::::::::::::::
         ::                     SUMMARY                     ::
         :::::::::::::::::::::::::::::::::::::::::::::::::::::
         :: total energy             -11.079334920213 Eh    ::
         :: gradient norm              0.307570021960 Eh/a0 ::
         :: HOMO-LUMO gap              0.570900442374 eV    ::
         ::.................................................::
         :: SCC energy               -11.154699918774 Eh    ::
         :: -> isotropic ES           -0.058362854840 Eh    ::
         :: -> anisotropic ES          0.011470666072 Eh    ::
         :: -> anisotropic XC         -0.018088416201 Eh    ::
         :: -> dispersion             -0.008487321028 Eh    ::
         :: repulsion energy           0.075376658153 Eh    ::
         :: add. restraining           0.000000000000 Eh    ::
         :: total charge              -0.000000000022 e     ::
         :::::::::::::::::::::::::::::::::::::::::::::::::::::

      ----------------------------------------------------------- 
     |                   =====================                   |
     |                        A N C O P T                        |
     |                   =====================                   |
     |               Approximate Normal Coordinate               |
     |                Rational Function Optimizer                |
      ----------------------------------------------------------- 

          ...................................................
          :                      SETUP                      :
          :.................................................:
          :   optimization level            normal          :
          :   max. optcycles                   200          :
          :   ANC micro-cycles                  20          :
          :   degrees of freedom                27          :
          :.................................................:
          :   RF solver                   davidson          :
          :   write xtbopt.log                true          :
          :   linear?                        false          :
          :   energy convergence         0.5000000E-05 Eh   :
          :   grad. convergence          0.1000000E-02 Eh/α :
          :   maximium RF displ.         1.0000000          :
          :   Hlow (freq-cutoff)         0.1000000E-01      :
          :   Hmax (freq-cutoff)         5.0000000          :
          :   S6 in model hess.         20.0000000          :
          ...................................................

generating ANC from model Hessian ...
Using Lindh-Hessian (1995)
 Shifting diagonal of input Hessian by    2.2038826801405058E-002
 Lowest  eigenvalues of input Hessian
    0.010000    0.019911    0.021628    0.000000    0.000000    0.000000
    0.000000    0.000000    0.000000    0.022572    0.022881    0.023907
    0.024688    0.025456    0.027852    0.033386    0.037694    0.043666
 Highest eigenvalues
    0.249657    0.282923    0.305419    0.357358    0.387552    0.419042


........................................................................
.............................. CYCLE    1 ..............................
........................................................................
   1    -11.1546999 -0.111547E+02  0.111E-04    0.57       0.0  T
   2    -11.1546999  0.281899E-09  0.166E-04    0.57     182.1  T
   3    -11.1546999 -0.273884E-09  0.101E-04    0.57     297.5  T
     SCC iter.                  ...        0 min,  0.001 sec
     gradient                   ...        0 min,  0.001 sec
 * total energy  :   -11.0793349 Eh     change       -0.1285706E-08 Eh
   gradient norm :     0.3073073 Eh/α   predicted     0.0000000E+00 (-100.00%)
   displ. norm   :     0.7579725 α      lambda       -0.2218642E+00
   maximum displ.:     0.3540968 α      in ANC's #19, #23, #14, ...

........................................................................
.............................. CYCLE    2 ..............................
........................................................................
   1    -11.3166545 -0.113167E+02  0.205E+00    0.81       0.0  T
   2    -11.2332293  0.834252E-01  0.251E+00    0.72       1.0  T
   3    -11.2299428  0.328649E-02  0.250E+00    0.45       1.0  T
   4    -11.2743332 -0.443904E-01  0.178E+00    0.98       1.0  T
   5    -11.3245653 -0.502321E-01  0.552E-01    0.76       1.0  T
   6    -11.3213283  0.323696E-02  0.949E-01    0.66       1.0  T
   7    -11.3199137  0.141460E-02  0.890E-01    0.64       1.0  T
   8    -11.3263104 -0.639664E-02  0.455E-01    0.77       1.0  T
   9    -11.3312853 -0.497494E-02  0.929E-02    0.74       1.0  T
  10    -11.3312776  0.773390E-05  0.848E-02    0.74       1.0  T
  11    -11.3313094 -0.317807E-04  0.656E-02    0.74       1.0  T
  12    -11.3313358 -0.263866E-04  0.110E-02    0.74       2.7  T
  13    -11.3313360 -0.249478E-06  0.513E-03    0.74       5.9  T
  14    -11.3313359  0.130238E-06  0.380E-03    0.74       7.9  T
  15    -11.3313362 -0.330569E-06  0.890E-04    0.74      33.9  T
  16    -11.3313362 -0.151933E-07  0.129E-04    0.74     233.9  T
     SCC iter.                  ...        0 min,  0.002 sec
     gradient                   ...        0 min,  0.000 sec
 * total energy  :   -11.2682936 Eh     change       -0.1889587E+00 Eh
   gradient norm :     0.2620593 Eh/α   predicted    -0.1746651E+00 (  -7.56%)
   displ. norm   :     0.9150045 α      lambda       -0.2369846E+00
   maximum displ.:     0.5043246 α      in ANC's #23, #26, #24, ...

........................................................................
.............................. CYCLE    3 ..............................
........................................................................
   1    -11.5634622 -0.115635E+02  0.302E+00    0.80       0.0  T
   2    -11.3699563  0.193506E+00  0.415E+00    1.07       1.0  T
   3    -11.5754044 -0.205448E+00  0.182E+00    0.69       1.0  T
   4    -11.5243556  0.510488E-01  0.215E+00    1.33       1.0  T
   5    -11.5385400 -0.141844E-01  0.181E+00    0.65       1.0  T
   6    -11.5907359 -0.521959E-01  0.780E-01    0.76       1.0  T
   7    -11.5939627 -0.322685E-02  0.472E-01    0.83       1.0  T
   8    -11.5975084 -0.354569E-02  0.238E-01    0.91       1.0  T
   9    -11.5957654  0.174306E-02  0.350E-01    0.84       1.0  T
  10    -11.5974601 -0.169474E-02  0.183E-01    0.92       1.0  T
  11    -11.5976569 -0.196813E-03  0.503E-02    0.96       1.0  T
  12    -11.5976843 -0.273700E-04  0.398E-02    0.95       1.0  T
  13    -11.5977122 -0.278755E-04  0.207E-02    0.95       1.5  T
  14    -11.5977146 -0.238562E-05  0.325E-03    0.95       9.3  T
  15    -11.5977147 -0.100825E-06  0.124E-03    0.95      24.4  T
  16    -11.5977147 -0.507189E-07  0.320E-04    0.95      94.3  T
  17    -11.5977147 -0.872593E-09  0.224E-04    0.95     134.5  T
     SCC iter.                  ...        0 min,  0.003 sec
     gradient                   ...        0 min,  0.000 sec
 * total energy  :   -11.4456237 Eh     change       -0.1773302E+00 Eh
   gradient norm :     0.1766274 Eh/α   predicted    -0.2176980E+00 (  22.76%)
   displ. norm   :     0.7286107 α      lambda       -0.1129305E+00
   maximum displ.:     0.3328394 α      in ANC's #26, #14, #20, ...

........................................................................
.............................. CYCLE    4 ..............................
........................................................................
   1    -11.6861326 -0.116861E+02  0.392E+00    1.15       0.0  T
   2    -11.2758513  0.410281E+00  0.520E+00    0.87       1.0  T
   3    -11.6730489 -0.397198E+00  0.260E+00    0.88       1.0  T
   4    -11.6102238  0.628250E-01  0.310E+00    1.32       1.0  T
   5    -11.7130260 -0.102802E+00  0.167E+00    0.89       1.0  T
   6    -11.7590046 -0.459786E-01  0.717E-01    1.19       1.0  T
   7    -11.7484637  0.105409E-01  0.974E-01    1.02       1.0  T
   8    -11.7483927  0.710129E-04  0.882E-01    1.03       1.0  T
   9    -11.7634707 -0.150780E-01  0.201E-01    1.15       1.0  T
  10    -11.7639139 -0.443174E-03  0.904E-02    1.16       1.0  T
  11    -11.7639757 -0.617951E-04  0.354E-02    1.16       1.0  T
  12    -11.7639834 -0.772727E-05  0.139E-02    1.16       2.2  T
  13    -11.7639835 -0.121800E-06  0.937E-03    1.16       3.2  T
  14    -11.7639838 -0.297871E-06  0.194E-03    1.16      15.5  T
  15    -11.7639838 -0.285093E-07  0.439E-04    1.16      68.6  T
  16    -11.7639838 -0.930264E-09  0.322E-04    1.16      93.7  T
     SCC iter.                  ...        0 min,  0.003 sec
     gradient                   ...        0 min,  0.000 sec
 * total energy  :   -11.5143937 Eh     change       -0.6876994E-01 Eh
   gradient norm :     0.1966643 Eh/α   predicted    -0.8644116E-01 (  25.70%)
   displ. norm   :     0.7349519 α      lambda       -0.9556912E-01
   maximum displ.:     0.2994620 α      in ANC's #26, #14, #15, ...

........................................................................
.............................. CYCLE    5 ..............................
........................................................................
   1    -11.8082651 -0.118083E+02  0.286E+00    0.89       0.0  T
   2    -11.6970777  0.111187E+00  0.294E+00    0.88       1.0  T
   3    -11.7157547 -0.186770E-01  0.249E+00    1.00       1.0  T
   4    -11.7685740 -0.528193E-01  0.194E+00    0.73       1.0  T
   5    -11.7977321 -0.291582E-01  0.980E-01    0.98       1.0  T
   6    -11.8237615 -0.260294E-01  0.369E-01    0.92       1.0  T
   7    -11.8236625  0.990814E-04  0.406E-01    0.90       1.0  T
   8    -11.8229324  0.730069E-03  0.344E-01    0.88       1.0  T
   9    -11.8239536 -0.102126E-02  0.148E-01    0.91       1.0  T
  10    -11.8243098 -0.356141E-03  0.388E-02    0.91       1.0  T
  11    -11.8243146 -0.481845E-05  0.250E-02    0.91       1.2  T
  12    -11.8243154 -0.759014E-06  0.504E-03    0.91       6.0  T
  13    -11.8243154 -0.121063E-07  0.171E-03    0.91      17.6  T
  14    -11.8243154 -0.489612E-08  0.437E-04    0.91      69.0  T
  15    -11.8243154 -0.718524E-09  0.137E-04    0.91     219.3  T
     SCC iter.                  ...        0 min,  0.002 sec
     gradient                   ...        0 min,  0.000 sec
 * total energy  :   -11.5667972 Eh     change       -0.5240352E-01 Eh
   gradient norm :     0.1305430 Eh/α   predicted    -0.7359559E-01 (  40.44%)
   displ. norm   :     0.6838605 α      lambda       -0.6341770E-01
   maximum displ.:     0.2928048 α      in ANC's #2, #26, #18, ...

........................................................................
.............................. CYCLE    6 ..............................
........................................................................
   1    -11.8312520 -0.118313E+02  0.247E+00    1.14       0.0  T
   2    -11.6209348  0.210317E+00  0.355E+00    0.60       1.0  T
   3    -11.7882646 -0.167330E+00  0.208E+00    1.15       1.0  T
   4    -11.7849769  0.328766E-02  0.187E+00    0.96       1.0  T
   5    -11.8320031 -0.470262E-01  0.840E-01    1.20       1.0  T
   6    -11.8502447 -0.182417E-01  0.330E-01    1.11       1.0  T
   7    -11.8506096 -0.364930E-03  0.302E-01    1.11       1.0  T
   8    -11.8508128 -0.203109E-03  0.288E-01    1.11       1.0  T
   9    -11.8508453 -0.325023E-04  0.145E-01    1.10       1.0  T
  10    -11.8510351 -0.189888E-03  0.420E-02    1.09       1.0  T
  11    -11.8510388 -0.363736E-05  0.351E-02    1.09       1.0  T
  12    -11.8510414 -0.264276E-05  0.119E-02    1.09       2.5  T
  13    -11.8510448 -0.341669E-05  0.297E-03    1.09      10.2  T
  14    -11.8510448 -0.660954E-08  0.959E-04    1.09      31.4  T
  15    -11.8510449 -0.711788E-08  0.342E-04    1.09      88.2  T
     SCC iter.                  ...        0 min,  0.003 sec
     gradient                   ...        0 min,  0.001 sec
 * total energy  :   -11.5979129 Eh     change       -0.3111573E-01 Eh
   gradient norm :     0.1621874 Eh/α   predicted    -0.4653798E-01 (  49.56%)
   displ. norm   :     0.6726373 α      lambda       -0.6767619E-01
   maximum displ.:     0.2599562 α      in ANC's #2, #19, #23, ...

........................................................................
.............................. CYCLE    7 ..............................
........................................................................
   1    -11.8761441 -0.118761E+02  0.255E+00    1.11       0.0  T
   2    -11.8365564  0.395878E-01  0.204E+00    1.12       1.0  T
   3    -11.7771348  0.594216E-01  0.239E+00    1.66       1.0  T
   4    -11.8674504 -0.903157E-01  0.151E+00    0.96       1.0  T
   5    -11.8804194 -0.129690E-01  0.634E-01    1.30       1.0  T
   6    -11.8904784 -0.100590E-01  0.323E-01    1.23       1.0  T
   7    -11.8898693  0.609060E-03  0.360E-01    1.20       1.0  T
   8    -11.8890735  0.795765E-03  0.309E-01    1.18       1.0  T
   9    -11.8908561 -0.178257E-02  0.782E-02    1.27       1.0  T
  10    -11.8909179 -0.618101E-04  0.310E-02    1.26       1.0  T
  11    -11.8909436 -0.257054E-04  0.222E-02    1.26       1.4  T
  12    -11.8909480 -0.441390E-05  0.288E-03    1.26      10.5  T
  13    -11.8909481 -0.690265E-07  0.158E-03    1.26      19.1  T
  14    -11.8909481 -0.663709E-08  0.321E-04    1.25      93.9  T
  15    -11.8909481 -0.226693E-08  0.787E-05    1.25     383.3  T
     SCC iter.                  ...        0 min,  0.003 sec
     gradient                   ...        0 min,  0.001 sec
 * total energy  :   -11.6257793 Eh     change       -0.2786635E-01 Eh
   gradient norm :     0.1692680 Eh/α   predicted    -0.4914785E-01 (  76.37%)
   displ. norm   :     0.5852449 α      lambda       -0.5248519E-01
   maximum displ.:     0.2301997 α      in ANC's #11, #14, #15, ...

........................................................................
.............................. CYCLE    8 ..............................
........................................................................
   1    -11.8949915 -0.118950E+02  0.211E+00    1.74       0.0  T
   2    -11.8860417  0.894984E-02  0.153E+00    1.59       1.0  T
   3    -11.8219080  0.641337E-01  0.204E+00    2.13       1.0  T
   4    -11.8857355 -0.638275E-01  0.771E-01    1.51       1.0  T
   5    -11.8949247 -0.918924E-02  0.302E-01    1.80       1.0  T
   6    -11.8963657 -0.144101E-02  0.258E-01    1.73       1.0  T
   7    -11.8969540 -0.588283E-03  0.150E-01    1.70       1.0  T
   8    -11.8971411 -0.187055E-03  0.920E-02    1.70       1.0  T
   9    -11.8972809 -0.139862E-03  0.291E-02    1.72       1.0  T
  10    -11.8972996 -0.186577E-04  0.111E-02    1.73       2.7  T
  11    -11.8972997 -0.167804E-06  0.634E-03    1.73       4.8  T
  12    -11.8973006 -0.811370E-06  0.116E-03    1.73      25.9  T
  13    -11.8973006 -0.315722E-07  0.208E-04    1.73     144.8  T
  14    -11.8973006 -0.186722E-09  0.884E-05    1.73     340.9  T
     SCC iter.                  ...        0 min,  0.002 sec
     gradient                   ...        0 min,  0.001 sec
 * total energy  :   -11.6492953 Eh     change       -0.2351606E-01 Eh
   gradient norm :     0.1124033 Eh/α   predicted    -0.3523100E-01 (  49.82%)
   displ. norm   :     0.5989164 α      lambda       -0.3941206E-01
   maximum displ.:     0.3042084 α      in ANC's #7, #2, #4, ...

........................................................................
.............................. CYCLE    9 ..............................
........................................................................
   1    -11.9621440 -0.119621E+02  0.187E+00    1.44       0.0  T
   2    -11.9605710  0.157301E-02  0.135E+00    1.35       1.0  T
   3    -11.9335787  0.269923E-01  0.137E+00    1.42       1.0  T
   4    -11.9324991  0.107954E-02  0.128E+00    1.54       1.0  T
   5    -11.9638662 -0.313670E-01  0.185E-01    1.41       1.0  T
   6    -11.9639690 -0.102838E-03  0.127E-01    1.41       1.0  T
   7    -11.9638844  0.846053E-04  0.127E-01    1.37       1.0  T
   8    -11.9641464 -0.261993E-03  0.544E-02    1.40       1.0  T
   9    -11.9641905 -0.440550E-04  0.201E-02    1.39       1.5  T
  10    -11.9641931 -0.263161E-05  0.947E-03    1.40       3.2  T
  11    -11.9641950 -0.185675E-05  0.568E-03    1.40       5.3  T
  12    -11.9641954 -0.463015E-06  0.787E-04    1.40      38.3  T
  13    -11.9641954 -0.745724E-08  0.239E-04    1.40     126.1  T
     SCC iter.                  ...        0 min,  0.002 sec
     gradient                   ...        0 min,  0.000 sec
 * total energy  :   -11.6601651 Eh     change       -0.1086979E-01 Eh
   gradient norm :     0.1999175 Eh/α   predicted    -0.2677462E-01 ( 146.32%)
   displ. norm   :     0.4802360 α      lambda       -0.4258827E-01
   maximum displ.:     0.2938125 α      in ANC's #2, #15, #8, ...

........................................................................
.............................. CYCLE   10 ..............................
........................................................................
   1    -11.9372221 -0.119372E+02  0.126E+00    1.06       0.0  T
   2    -11.9330905  0.413159E-02  0.893E-01    1.40       1.0  T
   3    -11.9016792  0.314113E-01  0.126E+00    0.87       1.0  T
   4    -11.9167283 -0.150491E-01  0.101E+00    1.19       1.0  T
   5    -11.9383621 -0.216338E-01  0.219E-01    1.21       1.0  T
   6    -11.9393454 -0.983323E-03  0.109E-01    1.19       1.0  T
   7    -11.9394678 -0.122410E-03  0.851E-02    1.18       1.0  T
   8    -11.9392393  0.228514E-03  0.124E-01    1.17       1.0  T
   9    -11.9394395 -0.200173E-03  0.431E-02    1.18       1.0  T
  10    -11.9394795 -0.400620E-04  0.632E-03    1.18       4.8  T
  11    -11.9394797 -0.187541E-06  0.612E-03    1.18       4.9  T
  12    -11.9394801 -0.381817E-06  0.864E-04    1.18      34.9  T
  13    -11.9394801 -0.984226E-08  0.165E-04    1.18     182.4  T
     SCC iter.                  ...        0 min,  0.002 sec
     gradient                   ...        0 min,  0.000 sec
 * total energy  :   -11.6696146 Eh     change       -0.9449428E-02 Eh
   gradient norm :     0.1106020 Eh/α   predicted    -0.2620513E-01 ( 177.32%)
   displ. norm   :     0.5443494 α      lambda       -0.3651295E-01
   maximum displ.:     0.2482661 α      in ANC's #7, #8, #1, ...

........................................................................
.............................. CYCLE   11 ..............................
........................................................................
   1    -11.9527476 -0.119527E+02  0.135E+00    1.38       0.0  T
   2    -11.9334109  0.193367E-01  0.131E+00    1.34       1.0  T
   3    -11.9361679 -0.275692E-02  0.116E+00    1.45       1.0  T
   4    -11.9343359  0.183201E-02  0.102E+00    1.29       1.0  T
   5    -11.9507469 -0.164111E-01  0.507E-01    1.39       1.0  T
   6    -11.9566651 -0.591820E-02  0.123E-01    1.40       1.0  T
   7    -11.9570051 -0.339931E-03  0.877E-02    1.40       1.0  T
   8    -11.9568388  0.166224E-03  0.960E-02    1.39       1.0  T
   9    -11.9570194 -0.180570E-03  0.359E-02    1.40       1.0  T
  10    -11.9570407 -0.213313E-04  0.104E-02    1.40       2.9  T
  11    -11.9570417 -0.987078E-06  0.379E-03    1.40       7.9  T
  12    -11.9570418 -0.456807E-07  0.103E-03    1.40      29.2  T
  13    -11.9570418 -0.226487E-08  0.189E-04    1.40     159.9  T
  14    -11.9570418 -0.611390E-09  0.844E-05    1.40     357.1  T
     SCC iter.                  ...        0 min,  0.002 sec
     gradient                   ...        0 min,  0.000 sec
 * total energy  :   -11.6746457 Eh     change       -0.5031140E-02 Eh
   gradient norm :     0.1147155 Eh/α   predicted    -0.2366616E-01 ( 370.39%)
   displ. norm   :     0.4371219 α      lambda       -0.2937653E-01
   maximum displ.:     0.2312202 α      in ANC's #2, #7, #6, ...

........................................................................
.............................. CYCLE   12 ..............................
........................................................................
   1    -11.9424027 -0.119424E+02  0.143E+00    1.32       0.0  T
   2    -11.9399878  0.241486E-02  0.113E+00    1.20       1.0  T
   3    -11.8928544  0.471334E-01  0.156E+00    1.42       1.0  T
   4    -11.9392766 -0.464223E-01  0.515E-01    1.37       1.0  T
   5    -11.9413495 -0.207282E-02  0.303E-01    1.25       1.0  T
   6    -11.9435310 -0.218149E-02  0.869E-02    1.28       1.0  T
   7    -11.9430002  0.530792E-03  0.158E-01    1.27       1.0  T
   8    -11.9433654 -0.365244E-03  0.914E-02    1.28       1.0  T
   9    -11.9435408 -0.175345E-03  0.783E-03    1.27       3.9  T
  10    -11.9435400  0.792753E-06  0.715E-03    1.28       4.2  T
  11    -11.9435413 -0.134691E-05  0.198E-03    1.27      15.2  T
  12    -11.9435413 -0.254082E-07  0.685E-04    1.27      44.0  T
  13    -11.9435413 -0.408813E-08  0.218E-04    1.27     138.4  T
     SCC iter.                  ...        0 min,  0.002 sec
     gradient                   ...        0 min,  0.001 sec
 * total energy  :   -11.6831726 Eh     change       -0.8526937E-02 Eh
   gradient norm :     0.0806382 Eh/α   predicted    -0.1749484E-01 ( 105.17%)
   displ. norm   :     0.3835025 α      lambda       -0.1782751E-01
   maximum displ.:     0.1962264 α      in ANC's #15, #1, #17, ...

........................................................................
.............................. CYCLE   13 ..............................
........................................................................
   1    -11.9479722 -0.119480E+02  0.105E+00    1.24       0.0  T
   2    -11.9442790  0.369314E-02  0.762E-01    1.24       1.0  T
   3    -11.9205622  0.237168E-01  0.114E+00    1.19       1.0  T
   4    -11.9372183 -0.166561E-01  0.789E-01    1.28       1.0  T
   5    -11.9484874 -0.112691E-01  0.195E-01    1.23       1.0  T
   6    -11.9490289 -0.541488E-03  0.777E-02    1.24       1.0  T
   7    -11.9491736 -0.144786E-03  0.698E-02    1.24       1.0  T
   8    -11.9491678  0.581950E-05  0.275E-02    1.24       1.1  T
   9    -11.9491753 -0.748740E-05  0.978E-03    1.24       3.1  T
  10    -11.9491760 -0.738240E-06  0.426E-03    1.24       7.1  T
  11    -11.9491764 -0.303258E-06  0.159E-03    1.24      19.0  T
  12    -11.9491764 -0.189426E-07  0.408E-04    1.24      73.8  T
  13    -11.9491764 -0.849898E-09  0.818E-05    1.24     368.5  T
     SCC iter.                  ...        0 min,  0.002 sec
     gradient                   ...        0 min,  0.001 sec
 * total energy  :   -11.6869075 Eh     change       -0.3734835E-02 Eh
   gradient norm :     0.0639040 Eh/α   predicted    -0.1022473E-01 ( 173.77%)
   displ. norm   :     0.3965867 α      lambda       -0.1435832E-01
   maximum displ.:     0.1727960 α      in ANC's #7, #14, #3, ...

........................................................................
.............................. CYCLE   14 ..............................
........................................................................
   1    -11.9959441 -0.119959E+02  0.851E-01    1.02       0.0  T
   2    -11.9935433  0.240083E-02  0.682E-01    1.15       1.0  T
   3    -11.9892326  0.431067E-02  0.732E-01    1.02       1.0  T
   4    -11.9943030 -0.507043E-02  0.388E-01    1.01       1.0  T
   5    -11.9957499 -0.144692E-02  0.228E-01    1.07       1.0  T
   6    -11.9966900 -0.940023E-03  0.133E-01    1.08       1.0  T
   7    -11.9970000 -0.310065E-03  0.511E-02    1.06       1.0  T
   8    -11.9970075 -0.743654E-05  0.300E-02    1.07       1.0  T
   9    -11.9970123 -0.480035E-05  0.153E-02    1.07       2.0  T
  10    -11.9970175 -0.519086E-05  0.404E-03    1.07       7.5  T
  11    -11.9970177 -0.215104E-06  0.490E-04    1.07      61.6  T
  12    -11.9970177  0.115533E-08  0.279E-04    1.07     108.1  T
     SCC iter.                  ...        0 min,  0.002 sec
     gradient                   ...        0 min,  0.001 sec
 * total energy  :   -11.6875684 Eh     change       -0.6609402E-03 Eh
   gradient norm :     0.1234403 Eh/α   predicted    -0.8308307E-02 (1157.04%)
   displ. norm   :     0.3370953 α      lambda       -0.1542948E-01
   maximum displ.:     0.1838612 α      in ANC's #1, #15, #3, ...

........................................................................
.............................. CYCLE   15 ..............................
........................................................................
   1    -11.9562656 -0.119563E+02  0.899E-01    1.14       0.0  T
   2    -11.9511355  0.513014E-02  0.782E-01    1.05       1.0  T
   3    -11.9398077  0.113278E-01  0.855E-01    1.15       1.0  T
   4    -11.9538018 -0.139941E-01  0.526E-01    1.15       1.0  T
   5    -11.9563888 -0.258701E-02  0.183E-01    1.11       1.0  T
   6    -11.9572450 -0.856121E-03  0.703E-02    1.10       1.0  T
   7    -11.9572597 -0.147622E-04  0.668E-02    1.11       1.0  T
   8    -11.9572082  0.515471E-04  0.647E-02    1.10       1.0  T
   9    -11.9572880 -0.797712E-04  0.185E-02    1.11       1.6  T
  10    -11.9572931 -0.513566E-05  0.341E-03    1.10       8.8  T
  11    -11.9572932 -0.144889E-06  0.107E-03    1.10      28.2  T
  12    -11.9572932 -0.686617E-08  0.495E-04    1.10      60.9  T
  13    -11.9572932 -0.123007E-08  0.905E-05    1.10     333.3  T
     SCC iter.                  ...        0 min,  0.003 sec
     gradient                   ...        0 min,  0.001 sec
 * total energy  :   -11.6928427 Eh     change       -0.5274247E-02 Eh
   gradient norm :     0.0473537 Eh/α   predicted    -0.8591390E-02 (  62.89%)
   displ. norm   :     0.2683478 α      lambda       -0.6765831E-02
   maximum displ.:     0.1750031 α      in ANC's #5, #8, #17, ...

........................................................................
.............................. CYCLE   16 ..............................
........................................................................
   1    -11.9744988 -0.119745E+02  0.712E-01    1.12       0.0  T
   2    -11.9728871  0.161164E-02  0.540E-01    1.04       1.0  T
   3    -11.9677140  0.517312E-02  0.728E-01    1.17       1.0  T
   4    -11.9735394 -0.582537E-02  0.272E-01    1.12       1.0  T
   5    -11.9745470 -0.100761E-02  0.132E-01    1.09       1.0  T
   6    -11.9748969 -0.349914E-03  0.557E-02    1.09       1.0  T
   7    -11.9749144 -0.174675E-04  0.344E-02    1.09       1.0  T
   8    -11.9749237 -0.931232E-05  0.164E-02    1.09       1.8  T
   9    -11.9749281 -0.442038E-05  0.712E-03    1.09       4.2  T
  10    -11.9749285 -0.406813E-06  0.284E-03    1.09      10.6  T
  11    -11.9749285 -0.200566E-07  0.539E-04    1.09      55.9  T
  12    -11.9749285 -0.144243E-08  0.131E-04    1.09     229.4  T
     SCC iter.                  ...        0 min,  0.003 sec
     gradient                   ...        0 min,  0.001 sec
 * total energy  :   -11.6941915 Eh     change       -0.1348857E-02 Eh
   gradient norm :     0.0583696 Eh/α   predicted    -0.3626514E-02 ( 168.86%)
   displ. norm   :     0.3241476 α      lambda       -0.6914096E-02
   maximum displ.:     0.2097355 α      in ANC's #2, #7, #1, ...

........................................................................
.............................. CYCLE   17 ..............................
........................................................................
   1    -11.9741219 -0.119741E+02  0.709E-01    1.01       0.0  T
   2    -11.9722097  0.191213E-02  0.561E-01    1.07       1.0  T
   3    -11.9569626  0.152472E-01  0.836E-01    0.99       1.0  T
   4    -11.9708444 -0.138818E-01  0.414E-01    0.99       1.0  T
   5    -11.9743145 -0.347015E-02  0.124E-01    1.03       1.0  T
   6    -11.9744953 -0.180839E-03  0.470E-02    1.03       1.0  T
   7    -11.9745304 -0.350205E-04  0.328E-02    1.03       1.0  T
   8    -11.9745145  0.158389E-04  0.341E-02    1.03       1.0  T
   9    -11.9745351 -0.205345E-04  0.977E-03    1.03       3.1  T
  10    -11.9745365 -0.142668E-05  0.210E-03    1.03      14.3  T
  11    -11.9745365 -0.485453E-07  0.915E-04    1.03      33.0  T
  12    -11.9745365 -0.115802E-07  0.247E-04    1.03     122.0  T
     SCC iter.                  ...        0 min,  0.004 sec
     gradient                   ...        0 min,  0.001 sec
 * total energy  :   -11.6956352 Eh     change       -0.1443696E-02 Eh
   gradient norm :     0.0579749 Eh/α   predicted    -0.3820285E-02 ( 164.62%)
   displ. norm   :     0.2872004 α      lambda       -0.6164521E-02
   maximum displ.:     0.1618409 α      in ANC's #7, #4, #10, ...

........................................................................
.............................. CYCLE   18 ..............................
........................................................................
   1    -11.9645159 -0.119645E+02  0.547E-01    0.95       0.0  T
   2    -11.9633420  0.117388E-02  0.466E-01    0.98       1.0  T
   3    -11.9604846  0.285740E-02  0.442E-01    0.94       1.0  T
   4    -11.9609535 -0.468886E-03  0.434E-01    0.94       1.0  T
   5    -11.9645253 -0.357181E-02  0.130E-01    0.96       1.0  T
   6    -11.9649172 -0.391846E-03  0.332E-02    0.96       1.0  T
   7    -11.9649159  0.130750E-05  0.294E-02    0.95       1.0  T
   8    -11.9649115  0.431836E-05  0.306E-02    0.96       1.0  T
   9    -11.9649205 -0.896441E-05  0.143E-02    0.96       2.1  T
  10    -11.9649255 -0.502353E-05  0.195E-03    0.96      15.5  T
  11    -11.9649255 -0.192668E-07  0.454E-04    0.96      66.4  T
  12    -11.9649255 -0.898956E-09  0.198E-04    0.96     151.9  T
     SCC iter.                  ...        0 min,  0.006 sec
     gradient                   ...        0 min,  0.003 sec
 * total energy  :   -11.6973101 Eh     change       -0.1674879E-02 Eh
   gradient norm :     0.0376603 Eh/α   predicted    -0.3336499E-02 (  99.21%)
   displ. norm   :     0.3257765 α      lambda       -0.5822753E-02
   maximum displ.:     0.1723194 α      in ANC's #5, #8, #1, ...

........................................................................
.............................. CYCLE   19 ..............................
........................................................................
   1    -11.9842946 -0.119843E+02  0.837E-01    0.99       0.0  T
   2    -11.9837667  0.527908E-03  0.558E-01    0.98       1.0  T
   3    -11.9695096  0.142571E-01  0.913E-01    0.98       1.0  T
   4    -11.9840849 -0.145753E-01  0.170E-01    1.02       1.0  T
   5    -11.9844013 -0.316457E-03  0.580E-02    0.98       1.0  T
   6    -11.9843246  0.767583E-04  0.784E-02    0.99       1.0  T
   7    -11.9844476 -0.123071E-03  0.260E-02    0.99       1.2  T
   8    -11.9844498 -0.216723E-05  0.131E-02    0.99       2.3  T
   9    -11.9844533 -0.355736E-05  0.521E-03    0.99       5.8  T
  10    -11.9844535 -0.200198E-06  0.233E-03    0.99      12.9  T
  11    -11.9844536 -0.588233E-07  0.379E-04    0.99      79.6  T
  12    -11.9844536 -0.961446E-09  0.989E-05    0.99     304.9  T
     SCC iter.                  ...        0 min,  0.016 sec
     gradient                   ...        0 min,  0.001 sec
 * total energy  :   -11.6970853 Eh     change        0.2248124E-03 Eh
   gradient norm :     0.0642801 Eh/α   predicted    -0.3220360E-02 (*******%)
   displ. norm   :     0.2405428 α      lambda       -0.7280251E-02
   maximum displ.:     0.1208939 α      in ANC's #2, #1, #4, ...

........................................................................
.............................. CYCLE   20 ..............................
........................................................................
   1    -11.9786366 -0.119786E+02  0.494E-01    0.94       0.0  T
   2    -11.9785826  0.540362E-04  0.301E-01    0.93       1.0  T
   3    -11.9750649  0.351766E-02  0.424E-01    0.98       1.0  T
   4    -11.9783385 -0.327356E-02  0.108E-01    0.95       1.0  T
   5    -11.9786400 -0.301472E-03  0.353E-02    0.94       1.0  T
   6    -11.9786516 -0.115930E-04  0.209E-02    0.94       1.4  T
   7    -11.9786541 -0.257039E-05  0.114E-02    0.94       2.6  T
   8    -11.9786560 -0.191382E-05  0.530E-03    0.94       5.7  T
   9    -11.9786565 -0.420092E-06  0.171E-03    0.94      17.6  T
  10    -11.9786564  0.243919E-07  0.133E-03    0.94      22.6  T
  11    -11.9786565 -0.399499E-07  0.223E-04    0.94     135.0  T
  12    -11.9786565 -0.164285E-09  0.469E-05    0.94     642.8  T
     SCC iter.                  ...        0 min,  0.005 sec
     gradient                   ...        0 min,  0.002 sec
 * total energy  :   -11.6992649 Eh     change       -0.2179580E-02 Eh
   gradient norm :     0.0371507 Eh/α   predicted    -0.3850744E-02 (  76.67%)
   displ. norm   :     0.4096812 α      lambda       -0.7885917E-02
   maximum displ.:     0.2171754 α      in ANC's #2, #7, #1, ...
 * RMSD in coord.:     1.7351920 α      energy gain  -0.6199299E+00 Eh

generating ANC from model Hessian ...
Using Lindh-Hessian (1995)
 Shifting diagonal of input Hessian by    1.0523836357680493E-002
 Lowest  eigenvalues of input Hessian
    0.010000    0.010234    0.010369    0.010426    0.000000    0.000000
    0.000000    0.000000    0.000000    0.000000    0.010704    0.010835
    0.011089    0.011144    0.011581    0.011814    0.012929    0.016829
 Highest eigenvalues
    0.614820    0.759495    0.853038    0.978870    1.543105    2.348034


........................................................................
.............................. CYCLE   21 ..............................
........................................................................
   1    -11.9576321 -0.119576E+02  0.899E-01    0.90       0.0  T
   2    -11.9503375  0.729458E-02  0.857E-01    0.86       1.0  T
   3    -11.9495556  0.781880E-03  0.795E-01    0.93       1.0  T
   4    -11.9525995 -0.304382E-02  0.505E-01    0.86       1.0  T
   5    -11.9587493 -0.614986E-02  0.762E-02    0.88       1.0  T
   6    -11.9588009 -0.516155E-04  0.379E-02    0.89       1.0  T
   7    -11.9588130 -0.120362E-04  0.269E-02    0.89       1.1  T
   8    -11.9588123  0.669091E-06  0.107E-02    0.89       2.8  T
   9    -11.9588137 -0.142971E-05  0.349E-03    0.89       8.7  T
  10    -11.9588137  0.556038E-07  0.311E-03    0.89       9.7  T
  11    -11.9588138 -0.142420E-06  0.401E-04    0.89      75.1  T
  12    -11.9588138 -0.183325E-09  0.310E-04    0.89      97.2  T
     SCC iter.                  ...        0 min,  0.004 sec
     gradient                   ...        0 min,  0.001 sec
 * total energy  :   -11.6957125 Eh     change        0.3552394E-02 Eh
   gradient norm :     0.0668177 Eh/α   predicted     0.0000000E+00 (-100.00%)
   displ. norm   :     0.2615085 α      lambda       -0.9034525E-02
   maximum displ.:     0.1322973 α      in ANC's #11, #12, #10, ...

........................................................................
.............................. CYCLE   22 ..............................
........................................................................
   1    -11.9788206 -0.119788E+02  0.599E-01    0.90       0.0  T
   2    -11.9779566  0.864002E-03  0.437E-01    0.92       1.0  T
   3    -11.9704547  0.750197E-02  0.700E-01    0.87       1.0  T
   4    -11.9785387 -0.808406E-02  0.147E-01    0.91       1.0  T
   5    -11.9788214 -0.282654E-03  0.856E-02    0.91       1.0  T
   6    -11.9789811 -0.159755E-03  0.311E-02    0.90       1.0  T
   7    -11.9789922 -0.110269E-04  0.166E-02    0.91       1.8  T
   8    -11.9789918  0.395587E-06  0.984E-03    0.90       3.1  T
   9    -11.9789935 -0.173851E-05  0.468E-03    0.91       6.4  T
  10    -11.9789936 -0.117722E-06  0.267E-03    0.91      11.3  T
  11    -11.9789937 -0.105859E-06  0.376E-04    0.91      80.2  T
  12    -11.9789937  0.963745E-09  0.206E-04    0.91     146.4  T
     SCC iter.                  ...        0 min,  0.003 sec
     gradient                   ...        0 min,  0.000 sec
 * total energy  :   -11.7018698 Eh     change       -0.6157300E-02 Eh
   gradient norm :     0.0241870 Eh/α   predicted    -0.4826184E-02 ( -21.62%)
   displ. norm   :     0.3485676 α      lambda       -0.2666620E-02
   maximum displ.:     0.1708138 α      in ANC's #7, #11, #8, ...

........................................................................
.............................. CYCLE   23 ..............................
........................................................................
   1    -11.9852353 -0.119852E+02  0.758E-01    0.92       0.0  T
   2    -11.9846789  0.556404E-03  0.505E-01    0.93       1.0  T
   3    -11.9707566  0.139223E-01  0.917E-01    0.87       1.0  T
   4    -11.9852484 -0.144917E-01  0.834E-02    0.93       1.0  T
   5    -11.9852567 -0.829743E-05  0.664E-02    0.92       1.0  T
   6    -11.9852973 -0.406052E-04  0.525E-02    0.91       1.0  T
   7    -11.9853514 -0.540972E-04  0.155E-02    0.92       1.9  T
   8    -11.9853511  0.303256E-06  0.815E-03    0.92       3.7  T
   9    -11.9853522 -0.115310E-05  0.399E-03    0.92       7.6  T
  10    -11.9853523 -0.495883E-07  0.267E-03    0.92      11.3  T
  11    -11.9853524 -0.113142E-06  0.379E-04    0.92      79.6  T
  12    -11.9853524  0.499719E-09  0.190E-04    0.92     159.1  T
     SCC iter.                  ...        0 min,  0.002 sec
     gradient                   ...        0 min,  0.001 sec
 * total energy  :   -11.7034310 Eh     change       -0.1561281E-02 Eh
   gradient norm :     0.0134730 Eh/α   predicted    -0.1495306E-02 (  -4.23%)
   displ. norm   :     0.2886925 α      lambda       -0.9627494E-03
   maximum displ.:     0.1792561 α      in ANC's #11, #10, #12, ...

........................................................................
.............................. CYCLE   24 ..............................
........................................................................
   1    -11.9822053 -0.119822E+02  0.517E-01    0.93       0.0  T
   2    -11.9820383  0.166949E-03  0.335E-01    0.93       1.0  T
   3    -11.9763096  0.572872E-02  0.580E-01    0.91       1.0  T
   4    -11.9821978 -0.588818E-02  0.594E-02    0.94       1.0  T
   5    -11.9822225 -0.246793E-04  0.370E-02    0.93       1.0  T
   6    -11.9822060  0.164810E-04  0.426E-02    0.92       1.0  T
   7    -11.9822452 -0.392538E-04  0.642E-03    0.93       4.7  T
   8    -11.9822449  0.359560E-06  0.549E-03    0.93       5.5  T
   9    -11.9822454 -0.498464E-06  0.232E-03    0.93      13.0  T
  10    -11.9822454 -0.607654E-07  0.557E-04    0.93      54.2  T
  11    -11.9822454 -0.163750E-08  0.236E-04    0.93     127.6  T
     SCC iter.                  ...        0 min,  0.002 sec
     gradient                   ...        0 min,  0.001 sec
 * total energy  :   -11.7040619 Eh     change       -0.6308481E-03 Eh
   gradient norm :     0.0146104 Eh/α   predicted    -0.5214945E-03 ( -17.33%)
   displ. norm   :     0.3053816 α      lambda       -0.7811690E-03
   maximum displ.:     0.2177183 α      in ANC's #11, #7, #10, ...

........................................................................
.............................. CYCLE   25 ..............................
........................................................................
   1    -11.9836466 -0.119836E+02  0.404E-01    0.93       0.0  T
   2    -11.9834715  0.175088E-03  0.266E-01    0.93       1.0  T
   3    -11.9792277  0.424381E-02  0.493E-01    0.91       1.0  T
   4    -11.9835127 -0.428503E-02  0.840E-02    0.93       1.0  T
   5    -11.9836742 -0.161449E-03  0.227E-02    0.93       1.3  T
   6    -11.9836766 -0.243122E-05  0.181E-02    0.93       1.7  T
   7    -11.9836807 -0.405607E-05  0.580E-03    0.93       5.2  T
   8    -11.9836805  0.183405E-06  0.441E-03    0.93       6.8  T
   9    -11.9836808 -0.369148E-06  0.148E-03    0.93      20.3  T
  10    -11.9836809 -0.193265E-07  0.432E-04    0.93      69.8  T
  11    -11.9836809 -0.103156E-08  0.199E-04    0.93     151.8  T
     SCC iter.                  ...        0 min,  0.003 sec
     gradient                   ...        0 min,  0.003 sec
 * total energy  :   -11.7045542 Eh     change       -0.4923320E-03 Eh
   gradient norm :     0.0102543 Eh/α   predicted    -0.4270106E-03 ( -13.27%)
   displ. norm   :     0.2690706 α      lambda       -0.4381840E-03
   maximum displ.:     0.1771808 α      in ANC's #11, #10, #9, ...

........................................................................
.............................. CYCLE   26 ..............................
........................................................................
   1    -11.9828433 -0.119828E+02  0.338E-01    0.93       0.0  T
   2    -11.9828239  0.194126E-04  0.210E-01    0.93       1.0  T
   3    -11.9814688  0.135511E-02  0.259E-01    0.92       1.0  T
   4    -11.9828051 -0.133629E-02  0.485E-02    0.93       1.0  T
   5    -11.9828438 -0.387058E-04  0.173E-02    0.93       1.7  T
   6    -11.9828445 -0.723261E-06  0.156E-02    0.93       1.9  T
   7    -11.9828485 -0.402316E-05  0.386E-03    0.93       7.8  T
   8    -11.9828488 -0.335430E-06  0.121E-03    0.93      24.9  T
   9    -11.9828488 -0.356239E-09  0.801E-04    0.93      37.6  T
  10    -11.9828489 -0.893341E-08  0.311E-04    0.93      96.8  T
     SCC iter.                  ...        0 min,  0.002 sec
     gradient                   ...        0 min,  0.001 sec
 * total energy  :   -11.7048047 Eh     change       -0.2504338E-03 Eh
   gradient norm :     0.0105719 Eh/α   predicted    -0.2349514E-03 (  -6.18%)
   displ. norm   :     0.2820638 α      lambda       -0.4045434E-03
   maximum displ.:     0.2389982 α      in ANC's #11, #10, #7, ...

........................................................................
.............................. CYCLE   27 ..............................
........................................................................
   1    -11.9859011 -0.119859E+02  0.332E-01    0.94       0.0  T
   2    -11.9858824  0.186444E-04  0.206E-01    0.94       1.0  T
   3    -11.9838790  0.200346E-02  0.265E-01    0.93       1.0  T
   4    -11.9858798 -0.200083E-02  0.424E-02    0.94       1.0  T
   5    -11.9859034 -0.236591E-04  0.165E-02    0.94       1.8  T
   6    -11.9859013  0.217116E-05  0.178E-02    0.94       1.7  T
   7    -11.9859044 -0.312671E-05  0.789E-03    0.94       3.8  T
   8    -11.9859058 -0.143593E-05  0.343E-03    0.94       8.8  T
   9    -11.9859060 -0.191372E-06  0.116E-03    0.94      26.1  T
  10    -11.9859060 -0.635579E-08  0.611E-04    0.94      49.4  T
  11    -11.9859060 -0.550001E-08  0.144E-04    0.94     209.6  T
     SCC iter.                  ...        0 min,  0.002 sec
     gradient                   ...        0 min,  0.001 sec
 * total energy  :   -11.7049969 Eh     change       -0.1922119E-03 Eh
   gradient norm :     0.0078633 Eh/α   predicted    -0.2183641E-03 (  13.61%)
   displ. norm   :     0.2662004 α      lambda       -0.2952369E-03
   maximum displ.:     0.1650846 α      in ANC's #11, #7, #10, ...

........................................................................
.............................. CYCLE   28 ..............................
........................................................................
   1    -11.9862786 -0.119863E+02  0.414E-01    0.95       0.0  T
   2    -11.9861883  0.902641E-04  0.267E-01    0.96       1.0  T
   3    -11.9777843  0.840399E-02  0.529E-01    0.95       1.0  T
   4    -11.9862562 -0.847188E-02  0.445E-02    0.95       1.0  T
   5    -11.9862864 -0.301801E-04  0.255E-02    0.96       1.2  T
   6    -11.9862893 -0.291751E-05  0.170E-02    0.96       1.8  T
   7    -11.9862840  0.532084E-05  0.203E-02    0.96       1.5  T
   8    -11.9862902 -0.625688E-05  0.103E-02    0.96       2.9  T
   9    -11.9862929 -0.264982E-05  0.133E-03    0.96      22.7  T
  10    -11.9862929 -0.116752E-07  0.960E-04    0.96      31.4  T
  11    -11.9862929 -0.201046E-08  0.446E-04    0.96      67.6  T
     SCC iter.                  ...        0 min,  0.002 sec
     gradient                   ...        0 min,  0.001 sec
 * total energy  :   -11.7051950 Eh     change       -0.1981798E-03 Eh
   gradient norm :     0.0058835 Eh/α   predicted    -0.1580808E-03 ( -20.23%)
   displ. norm   :     0.2735956 α      lambda       -0.2256779E-03
   maximum displ.:     0.1821971 α      in ANC's #11, #10, #2, ...

........................................................................
.............................. CYCLE   29 ..............................
........................................................................
   1    -11.9866772 -0.119867E+02  0.390E-01    0.97       0.0  T
   2    -11.9866293  0.479013E-04  0.248E-01    0.97       1.0  T
   3    -11.9822503  0.437901E-02  0.397E-01    0.98       1.0  T
   4    -11.9865954 -0.434515E-02  0.667E-02    0.97       1.0  T
   5    -11.9866786 -0.831601E-04  0.254E-02    0.97       1.2  T
   6    -11.9866806 -0.199247E-05  0.180E-02    0.97       1.7  T
   7    -11.9866835 -0.290575E-05  0.102E-02    0.97       3.0  T
   8    -11.9866855 -0.201560E-05  0.490E-03    0.97       6.1  T
   9    -11.9866860 -0.484671E-06  0.793E-04    0.97      38.0  T
  10    -11.9866860  0.438909E-09  0.606E-04    0.97      49.8  T
     SCC iter.                  ...        0 min,  0.003 sec
     gradient                   ...        0 min,  0.001 sec
 * total energy  :   -11.7053546 Eh     change       -0.1595792E-03 Eh
   gradient norm :     0.0067391 Eh/α   predicted    -0.1212843E-03 ( -24.00%)
   displ. norm   :     0.3837788 α      lambda       -0.3203948E-03
   maximum displ.:     0.2737494 α      in ANC's #11, #10, #3, ...

........................................................................
.............................. CYCLE   30 ..............................
........................................................................
   1    -11.9867267 -0.119867E+02  0.495E-01    0.99       0.0  T
   2    -11.9866547  0.720219E-04  0.314E-01    0.99       1.0  T
   3    -11.9805073  0.614739E-02  0.477E-01    1.01       1.0  T
   4    -11.9864974 -0.599006E-02  0.108E-01    0.99       1.0  T
   5    -11.9867254 -0.228005E-03  0.379E-02    0.99       1.0  T
   6    -11.9867290 -0.364360E-05  0.269E-02    0.99       1.1  T
   7    -11.9867383 -0.930362E-05  0.139E-02    0.99       2.2  T
   8    -11.9867433 -0.495131E-05  0.209E-03    0.99      14.4  T
   9    -11.9867433 -0.336945E-07  0.101E-03    0.99      30.0  T
  10    -11.9867433  0.541977E-09  0.750E-04    0.99      40.2  T
  11    -11.9867433 -0.497412E-08  0.340E-04    0.99      88.6  T
     SCC iter.                  ...        0 min,  0.002 sec
     gradient                   ...        0 min,  0.001 sec
 * total energy  :   -11.7055900 Eh     change       -0.2353850E-03 Eh
   gradient norm :     0.0139283 Eh/α   predicted    -0.1837941E-03 ( -21.92%)
   displ. norm   :     0.5295760 α      lambda       -0.7571920E-03
   maximum displ.:     0.3605992 α      in ANC's #11, #3, #10, ...

........................................................................
.............................. CYCLE   31 ..............................
........................................................................
   1    -11.9910001 -0.119910E+02  0.664E-01    1.06       0.0  T
   2    -11.9907495  0.250574E-03  0.438E-01    1.03       1.0  T
   3    -11.9834549  0.729460E-02  0.668E-01    1.13       1.0  T
   4    -11.9908795 -0.742459E-02  0.110E-01    1.06       1.0  T
   5    -11.9910236 -0.144063E-03  0.593E-02    1.04       1.0  T
   6    -11.9910534 -0.298088E-04  0.395E-02    1.04       1.0  T
   7    -11.9910732 -0.197720E-04  0.262E-02    1.05       1.2  T
   8    -11.9910843 -0.111113E-04  0.712E-03    1.04       4.2  T
   9    -11.9910846 -0.363474E-06  0.380E-03    1.05       7.9  T
  10    -11.9910849 -0.236202E-06  0.116E-03    1.05      26.0  T
  11    -11.9910849 -0.208833E-08  0.336E-04    1.05      89.8  T
  12    -11.9910849 -0.384917E-09  0.464E-05    1.05     650.1  T
     SCC iter.                  ...        0 min,  0.003 sec
     gradient                   ...        0 min,  0.000 sec
 * total energy  :   -11.7059751 Eh     change       -0.3850508E-03 Eh
   gradient norm :     0.0313125 Eh/α   predicted    -0.4847755E-03 (  25.90%)
   displ. norm   :     0.1891763 α      lambda       -0.1077945E-02
   maximum displ.:     0.0803027 α      in ANC's #3, #18, #9, ...

........................................................................
.............................. CYCLE   32 ..............................
........................................................................
   1    -11.9895590 -0.119896E+02  0.270E-01    1.09       0.0  T
   2    -11.9892196  0.339382E-03  0.211E-01    1.05       1.0  T
   3    -11.9879813  0.123826E-02  0.289E-01    1.10       1.0  T
   4    -11.9890303 -0.104899E-02  0.167E-01    1.10       1.0  T
   5    -11.9895677 -0.537367E-03  0.576E-02    1.07       1.0  T
   6    -11.9896322 -0.645321E-04  0.165E-02    1.07       1.8  T
   7    -11.9896340 -0.179715E-05  0.113E-02    1.07       2.7  T
   8    -11.9896325  0.151376E-05  0.898E-03    1.07       3.4  T
   9    -11.9896348 -0.232287E-05  0.192E-03    1.07      15.7  T
  10    -11.9896348  0.921671E-08  0.143E-03    1.07      21.2  T
  11    -11.9896348 -0.440521E-07  0.174E-04    1.07     173.1  T
  12    -11.9896348 -0.277536E-09  0.374E-05    1.07     807.3  T
     SCC iter.                  ...        0 min,  0.003 sec
     gradient                   ...        0 min,  0.001 sec
 * total energy  :   -11.7068156 Eh     change       -0.8405141E-03 Eh
   gradient norm :     0.0281434 Eh/α   predicted    -0.5582614E-03 ( -33.58%)
   displ. norm   :     0.3852042 α      lambda       -0.2822722E-02
   maximum displ.:     0.1523684 α      in ANC's #11, #18, #9, ...

........................................................................
.............................. CYCLE   33 ..............................
........................................................................
   1    -11.9914535 -0.119915E+02  0.498E-01    1.15       0.0  T
   2    -11.9890425  0.241101E-02  0.453E-01    1.03       1.0  T
   3    -11.9870646  0.197798E-02  0.486E-01    1.14       1.0  T
   4    -11.9897993 -0.273471E-02  0.350E-01    1.17       1.0  T
   5    -11.9916445 -0.184523E-02  0.107E-01    1.10       1.0  T
   6    -11.9918792 -0.234707E-03  0.480E-02    1.10       1.0  T
   7    -11.9919030 -0.237846E-04  0.306E-02    1.10       1.0  T
   8    -11.9918787  0.243344E-04  0.332E-02    1.10       1.0  T
   9    -11.9919079 -0.292070E-04  0.743E-03    1.10       4.1  T
  10    -11.9919088 -0.963343E-06  0.233E-03    1.09      12.9  T
  11    -11.9919089 -0.105120E-06  0.278E-04    1.09     108.3  T
  12    -11.9919089 -0.610836E-09  0.125E-04    1.09     240.3  T
     SCC iter.                  ...        0 min,  0.003 sec
     gradient                   ...        0 min,  0.001 sec
 * total energy  :   -11.7083349 Eh     change       -0.1519328E-02 Eh
   gradient norm :     0.0216893 Eh/α   predicted    -0.1620783E-02 (   6.68%)
   displ. norm   :     0.4753616 α      lambda       -0.2038048E-02
   maximum displ.:     0.2052382 α      in ANC's #3, #10, #14, ...

........................................................................
.............................. CYCLE   34 ..............................
........................................................................
   1    -11.9653899 -0.119654E+02  0.108E+00    1.30       0.0  T
   2    -11.9623778  0.301201E-02  0.785E-01    1.15       1.0  T
   3    -11.9369802  0.253977E-01  0.123E+00    1.41       1.0  T
   4    -11.9621186 -0.251385E-01  0.496E-01    1.33       1.0  T
   5    -11.9651070 -0.298835E-02  0.184E-01    1.23       1.0  T
   6    -11.9659408 -0.833855E-03  0.916E-02    1.22       1.0  T
   7    -11.9660089 -0.680472E-04  0.632E-02    1.23       1.0  T
   8    -11.9660305 -0.216541E-04  0.340E-02    1.23       1.0  T
   9    -11.9660502 -0.196325E-04  0.843E-03    1.23       3.6  T
  10    -11.9660504 -0.204694E-06  0.603E-03    1.23       5.0  T
  11    -11.9660514 -0.992360E-06  0.109E-03    1.23      27.6  T
  12    -11.9660514 -0.823579E-08  0.479E-04    1.23      62.9  T
  13    -11.9660514 -0.116347E-08  0.105E-04    1.23     286.2  T
     SCC iter.                  ...        0 min,  0.003 sec
     gradient                   ...        0 min,  0.001 sec
 * total energy  :   -11.7070827 Eh     change        0.1252202E-02 Eh
   gradient norm :     0.0483834 Eh/α   predicted    -0.1249297E-02 (-199.77%)
   displ. norm   :     0.3066543 α      lambda       -0.4748120E-02
   maximum displ.:     0.1428855 α      in ANC's #11, #18, #3, ...

........................................................................
.............................. CYCLE   35 ..............................
........................................................................
   1    -11.9825728 -0.119826E+02  0.597E-01    1.04       0.0  T
   2    -11.9806126  0.196025E-02  0.524E-01    1.17       1.0  T
   3    -11.9775249  0.308772E-02  0.534E-01    1.05       1.0  T
   4    -11.9792119 -0.168704E-02  0.416E-01    1.04       1.0  T
   5    -11.9828250 -0.361308E-02  0.124E-01    1.10       1.0  T
   6    -11.9830204 -0.195381E-03  0.613E-02    1.11       1.0  T
   7    -11.9830870 -0.666067E-04  0.259E-02    1.10       1.2  T
   8    -11.9830857  0.124006E-05  0.235E-02    1.10       1.3  T
   9    -11.9830894 -0.364573E-05  0.137E-02    1.10       2.2  T
  10    -11.9830938 -0.441379E-05  0.214E-03    1.10      14.1  T
  11    -11.9830939 -0.768732E-07  0.858E-04    1.10      35.1  T
  12    -11.9830939 -0.135108E-07  0.218E-04    1.10     138.6  T
     SCC iter.                  ...        0 min,  0.003 sec
     gradient                   ...        0 min,  0.001 sec
 * total energy  :   -11.7089741 Eh     change       -0.1891355E-02 Eh
   gradient norm :     0.0238532 Eh/α   predicted    -0.2597307E-02 (  37.33%)
   displ. norm   :     0.2474988 α      lambda       -0.2012316E-02
   maximum displ.:     0.1517605 α      in ANC's #8, #15, #12, ...

........................................................................
.............................. CYCLE   36 ..............................
........................................................................
   1    -12.0005660 -0.120006E+02  0.702E-01    1.12       0.0  T
   2    -12.0001574  0.408595E-03  0.464E-01    1.08       1.0  T
   3    -11.9801629  0.199945E-01  0.925E-01    1.17       1.0  T
   4    -12.0003083 -0.201454E-01  0.153E-01    1.14       1.0  T
   5    -12.0005001 -0.191875E-03  0.919E-02    1.09       1.0  T
   6    -12.0006458 -0.145640E-03  0.436E-02    1.10       1.0  T
   7    -12.0006585 -0.126991E-04  0.318E-02    1.10       1.0  T
   8    -12.0006661 -0.766392E-05  0.120E-02    1.10       2.5  T
   9    -12.0006687 -0.254251E-05  0.388E-03    1.10       7.8  T
  10    -12.0006687  0.561041E-08  0.318E-03    1.10       9.5  T
  11    -12.0006689 -0.230498E-06  0.977E-04    1.10      30.9  T
  12    -12.0006689 -0.230547E-07  0.228E-04    1.10     132.2  T
     SCC iter.                  ...        0 min,  0.004 sec
     gradient                   ...        0 min,  0.001 sec
 * total energy  :   -11.7080575 Eh     change        0.9165639E-03 Eh
   gradient norm :     0.0442147 Eh/α   predicted    -0.1067790E-02 (-216.50%)
   displ. norm   :     0.1863380 α      lambda       -0.2677895E-02
   maximum displ.:     0.1288592 α      in ANC's #11, #13, #14, ...

........................................................................
.............................. CYCLE   37 ..............................
........................................................................
   1    -11.9887899 -0.119888E+02  0.464E-01    1.11       0.0  T
   2    -11.9887807  0.917920E-05  0.309E-01    1.11       1.0  T
   3    -11.9861931  0.258764E-02  0.313E-01    1.11       1.0  T
   4    -11.9884986 -0.230548E-02  0.109E-01    1.11       1.0  T
   5    -11.9888043 -0.305755E-03  0.287E-02    1.11       1.1  T
   6    -11.9888053 -0.981776E-06  0.245E-02    1.11       1.2  T
   7    -11.9888031  0.215770E-05  0.221E-02    1.11       1.4  T
   8    -11.9888103 -0.721020E-05  0.772E-03    1.11       3.9  T
   9    -11.9888119 -0.157185E-05  0.227E-03    1.11      13.3  T
  10    -11.9888120 -0.390772E-07  0.129E-03    1.11      23.4  T
  11    -11.9888120 -0.228985E-07  0.146E-04    1.11     206.5  T
  12    -11.9888120  0.967582E-10  0.100E-04    1.11     300.3  T
     SCC iter.                  ...        0 min,  0.003 sec
     gradient                   ...        0 min,  0.001 sec
 * total energy  :   -11.7095480 Eh     change       -0.1490487E-02 Eh
   gradient norm :     0.0121570 Eh/α   predicted    -0.1385440E-02 (  -7.05%)
   displ. norm   :     0.2339195 α      lambda       -0.4567359E-03
   maximum displ.:     0.1897547 α      in ANC's #11, #7, #2, ...

........................................................................
.............................. CYCLE   38 ..............................
........................................................................
   1    -11.9840332 -0.119840E+02  0.350E-01    1.12       0.0  T
   2    -11.9839278  0.105480E-03  0.222E-01    1.09       1.0  T
   3    -11.9802606  0.366717E-02  0.401E-01    1.14       1.0  T
   4    -11.9838125 -0.355195E-02  0.123E-01    1.13       1.0  T
   5    -11.9840432 -0.230627E-03  0.262E-02    1.11       1.2  T
   6    -11.9840536 -0.104352E-04  0.184E-02    1.10       1.6  T
   7    -11.9840534  0.160248E-06  0.149E-02    1.10       2.0  T
   8    -11.9840578 -0.437938E-05  0.505E-03    1.10       6.0  T
   9    -11.9840583 -0.477915E-06  0.132E-03    1.10      22.9  T
  10    -11.9840583 -0.143033E-07  0.716E-04    1.10      42.1  T
  11    -11.9840583 -0.103302E-07  0.158E-04    1.10     191.0  T
     SCC iter.                  ...        0 min,  0.003 sec
     gradient                   ...        0 min,  0.001 sec
 * total energy  :   -11.7096126 Eh     change       -0.6456866E-04 Eh
   gradient norm :     0.0141083 Eh/α   predicted    -0.2408643E-03 ( 273.04%)
   displ. norm   :     0.1772302 α      lambda       -0.4703507E-03
   maximum displ.:     0.1266174 α      in ANC's #11, #10, #8, ...

........................................................................
.............................. CYCLE   39 ..............................
........................................................................
   1    -11.9834265 -0.119834E+02  0.250E-01    1.13       0.0  T
   2    -11.9833909  0.355646E-04  0.166E-01    1.12       1.0  T
   3    -11.9816137  0.177717E-02  0.286E-01    1.15       1.0  T
   4    -11.9833763 -0.176255E-02  0.623E-02    1.13       1.0  T
   5    -11.9834201 -0.438001E-04  0.281E-02    1.12       1.1  T
   6    -11.9834325 -0.124519E-04  0.161E-02    1.12       1.9  T
   7    -11.9834347 -0.219329E-05  0.986E-03    1.12       3.1  T
   8    -11.9834359 -0.114644E-05  0.340E-03    1.12       8.9  T
   9    -11.9834361 -0.251130E-06  0.904E-04    1.12      33.3  T
  10    -11.9834361 -0.686679E-09  0.490E-04    1.12      61.5  T
     SCC iter.                  ...        0 min,  0.003 sec
     gradient                   ...        0 min,  0.001 sec
 * total energy  :   -11.7099121 Eh     change       -0.2995009E-03 Eh
   gradient norm :     0.0077800 Eh/α   predicted    -0.2425636E-03 ( -19.01%)
   displ. norm   :     0.2506191 α      lambda       -0.2312057E-03
   maximum displ.:     0.2049736 α      in ANC's #11, #8, #10, ...

........................................................................
.............................. CYCLE   40 ..............................
........................................................................
   1    -11.9845686 -0.119846E+02  0.292E-01    1.15       0.0  T
   2    -11.9845556  0.129329E-04  0.183E-01    1.13       1.0  T
   3    -11.9834352  0.112040E-02  0.212E-01    1.17       1.0  T
   4    -11.9845235 -0.108829E-02  0.589E-02    1.15       1.0  T
   5    -11.9845692 -0.456364E-04  0.209E-02    1.14       1.4  T
   6    -11.9845698 -0.670569E-06  0.169E-02    1.14       1.8  T
   7    -11.9845722 -0.232503E-05  0.112E-02    1.14       2.7  T
   8    -11.9845746 -0.241631E-05  0.327E-03    1.14       9.2  T
   9    -11.9845747 -0.175226E-06  0.108E-03    1.14      27.9  T
  10    -11.9845747  0.786465E-08  0.767E-04    1.14      39.3  T
  11    -11.9845748 -0.136361E-07  0.155E-04    1.14     194.2  T
     SCC iter.                  ...        0 min,  0.002 sec
     gradient                   ...        0 min,  0.001 sec
 * total energy  :   -11.7100683 Eh     change       -0.1562059E-03 Eh
   gradient norm :     0.0065633 Eh/α   predicted    -0.1228633E-03 ( -21.35%)
   displ. norm   :     0.2946134 α      lambda       -0.1756553E-03
   maximum displ.:     0.2476304 α      in ANC's #11, #8, #2, ...

........................................................................
.............................. CYCLE   41 ..............................
........................................................................
   1    -11.9835732 -0.119836E+02  0.316E-01    1.16       0.0  T
   2    -11.9835533  0.198684E-04  0.196E-01    1.15       1.0  T
   3    -11.9819997  0.155354E-02  0.254E-01    1.17       1.0  T
   4    -11.9835352 -0.153546E-02  0.574E-02    1.17       1.0  T
   5    -11.9835717 -0.364695E-04  0.235E-02    1.16       1.3  T
   6    -11.9835731 -0.139646E-05  0.214E-02    1.16       1.4  T
   7    -11.9835800 -0.692216E-05  0.967E-03    1.16       3.1  T
   8    -11.9835807 -0.696562E-06  0.338E-03    1.16       8.9  T
   9    -11.9835809 -0.171275E-06  0.142E-03    1.16      21.3  T
  10    -11.9835808  0.735547E-08  0.914E-04    1.16      33.0  T
  11    -11.9835809 -0.199080E-07  0.170E-04    1.16     176.8  T
     SCC iter.                  ...        0 min,  0.002 sec
     gradient                   ...        0 min,  0.001 sec
 * total energy  :   -11.7101767 Eh     change       -0.1084315E-03 Eh
   gradient norm :     0.0057976 Eh/α   predicted    -0.9545053E-04 ( -11.97%)
   displ. norm   :     0.1910988 α      lambda       -0.1085128E-03
   maximum displ.:     0.1543599 α      in ANC's #11, #8, #2, ...

........................................................................
.............................. CYCLE   42 ..............................
........................................................................
   1    -11.9842106 -0.119842E+02  0.214E-01    1.17       0.0  T
   2    -11.9842042  0.642264E-05  0.132E-01    1.17       1.0  T
   3    -11.9837691  0.435134E-03  0.155E-01    1.17       1.0  T
   4    -11.9842111 -0.441979E-03  0.145E-02    1.18       2.1  T
   5    -11.9842122 -0.113701E-05  0.787E-03    1.17       3.8  T
   6    -11.9842088  0.334586E-05  0.131E-02    1.17       2.3  T
   7    -11.9842128 -0.400107E-05  0.385E-03    1.17       7.8  T
   8    -11.9842130 -0.186005E-06  0.130E-03    1.17      23.1  T
   9    -11.9842130 -0.426296E-08  0.892E-04    1.17      33.8  T
  10    -11.9842130 -0.700066E-08  0.241E-04    1.17     125.1  T
     SCC iter.                  ...        0 min,  0.002 sec
     gradient                   ...        0 min,  0.001 sec
 * total energy  :   -11.7102607 Eh     change       -0.8404034E-04 Eh
   gradient norm :     0.0063449 Eh/α   predicted    -0.5623618E-04 ( -33.08%)
   displ. norm   :     0.2833784 α      lambda       -0.2049671E-03
   maximum displ.:     0.2090663 α      in ANC's #11, #8, #1, ...
 * RMSD in coord.:     0.6505924 α      energy gain  -0.1099587E-01 Eh

generating ANC from model Hessian ...
Using Lindh-Hessian (1995)
 Shifting diagonal of input Hessian by    1.1960812602315922E-002
 Lowest  eigenvalues of input Hessian
    0.010000    0.011785    0.011866    0.011898    0.000000    0.000000
    0.000000    0.000000    0.000000    0.000000    0.011964    0.012115
    0.012196    0.012326    0.012357    0.012493    0.012585    0.013004
 Highest eigenvalues
    0.606228    0.716708    0.981583    1.073992    1.572024    2.328043


........................................................................
.............................. CYCLE   43 ..............................
........................................................................
   1    -11.9849910 -0.119850E+02  0.338E-01    1.20       0.0  T
   2    -11.9849427  0.482435E-04  0.216E-01    1.21       1.0  T
   3    -11.9826432  0.229956E-02  0.347E-01    1.17       1.0  T
   4    -11.9849397 -0.229653E-02  0.606E-02    1.20       1.0  T
   5    -11.9849944 -0.547203E-04  0.259E-02    1.20       1.2  T
   6    -11.9849927  0.167743E-05  0.245E-02    1.20       1.2  T
   7    -11.9850038 -0.110374E-04  0.913E-03    1.20       3.3  T
   8    -11.9850049 -0.111269E-05  0.413E-03    1.20       7.3  T
   9    -11.9850051 -0.236248E-06  0.159E-03    1.20      18.9  T
  10    -11.9850051 -0.110625E-07  0.572E-04    1.20      52.7  T
  11    -11.9850051 -0.606981E-10  0.313E-04    1.20      96.2  T
     SCC iter.                  ...        0 min,  0.002 sec
     gradient                   ...        0 min,  0.000 sec
 * total energy  :   -11.7104070 Eh     change       -0.1462371E-03 Eh
   gradient norm :     0.0087728 Eh/α   predicted     0.0000000E+00 (-100.00%)
   displ. norm   :     0.1220074 α      lambda       -0.2628696E-03
   maximum displ.:     0.0680940 α      in ANC's #1, #8, #10, ...

........................................................................
.............................. CYCLE   44 ..............................
........................................................................
   1    -11.9832733 -0.119833E+02  0.331E-01    1.20       0.0  T
   2    -11.9832660  0.736320E-05  0.204E-01    1.19       1.0  T
   3    -11.9826941  0.571830E-03  0.179E-01    1.21       1.0  T
   4    -11.9832755 -0.581410E-03  0.168E-02    1.20       1.8  T
   5    -11.9832719  0.364400E-05  0.159E-02    1.20       1.9  T
   6    -11.9832710  0.856331E-06  0.140E-02    1.20       2.1  T
   7    -11.9832763 -0.528152E-05  0.310E-03    1.20       9.7  T
   8    -11.9832765 -0.142767E-06  0.112E-03    1.20      27.0  T
   9    -11.9832765 -0.349491E-08  0.705E-04    1.20      42.8  T
  10    -11.9832765 -0.568213E-08  0.250E-04    1.20     120.5  T
     SCC iter.                  ...        0 min,  0.002 sec
     gradient                   ...        0 min,  0.003 sec
 * total energy  :   -11.7105278 Eh     change       -0.1207836E-03 Eh
   gradient norm :     0.0046826 Eh/α   predicted    -0.1333895E-03 (  10.44%)
   displ. norm   :     0.2198866 α      lambda       -0.3892641E-03
   maximum displ.:     0.1390502 α      in ANC's #8, #1, #10, ...

........................................................................
.............................. CYCLE   45 ..............................
........................................................................
   1    -11.9788626 -0.119789E+02  0.624E-01    1.19       0.0  T
   2    -11.9788589  0.371612E-05  0.395E-01    1.19       1.0  T
   3    -11.9779350  0.923865E-03  0.198E-01    1.21       1.0  T
   4    -11.9787877 -0.852688E-03  0.679E-02    1.19       1.0  T
   5    -11.9788600 -0.722793E-04  0.348E-02    1.19       1.0  T
   6    -11.9788441  0.159274E-04  0.364E-02    1.20       1.0  T
   7    -11.9788717 -0.276321E-04  0.869E-03    1.20       3.5  T
   8    -11.9788726 -0.902106E-06  0.326E-03    1.19       9.3  T
   9    -11.9788728 -0.136825E-06  0.168E-03    1.19      18.0  T
  10    -11.9788728 -0.220078E-07  0.438E-04    1.19      68.8  T
[...]
     gradient                   ...        0 min,  0.001 sec
 * total energy  :   -11.7291455 Eh     change       -0.8473653E-05 Eh
   gradient norm :     0.0007837 Eh/α   predicted    -0.4394418E-05 ( -48.14%)
   displ. norm   :     0.0593534 α      lambda       -0.9989775E-05
   maximum displ.:     0.0346112 α      in ANC's #7, #1, #2, ...

........................................................................
.............................. CYCLE   74 ..............................
........................................................................
   1    -11.9725624 -0.119726E+02  0.146E-01    1.88       0.0  T
   2    -11.9725620  0.316682E-06  0.945E-02    1.88       1.0  T
   3    -11.9724991  0.629582E-04  0.543E-02    1.88       1.0  T
   4    -11.9725602 -0.610932E-04  0.123E-02    1.88       2.5  T
   5    -11.9725615 -0.129977E-05  0.901E-03    1.88       3.3  T
   6    -11.9725623 -0.841504E-06  0.588E-03    1.88       5.1  T
   7    -11.9725629 -0.559171E-06  0.214E-03    1.88      14.1  T
   8    -11.9725630 -0.784698E-07  0.381E-04    1.88      79.2  T
   9    -11.9725630 -0.555858E-09  0.243E-04    1.88     124.2  T
     SCC iter.                  ...        0 min,  0.002 sec
     gradient                   ...        0 min,  0.001 sec
 * total energy  :   -11.7291531 Eh     change       -0.7543324E-05 Eh
   gradient norm :     0.0008327 Eh/α   predicted    -0.5003580E-05 ( -33.67%)
   displ. norm   :     0.0397955 α      lambda       -0.3610944E-05
   maximum displ.:     0.0208250 α      in ANC's #7, #3, #1, ...

........................................................................
.............................. CYCLE   75 ..............................
........................................................................
   1    -11.9724483 -0.119724E+02  0.819E-02    1.88       0.0  T
   2    -11.9724480  0.264594E-06  0.535E-02    1.88       1.0  T
   3    -11.9724220  0.260000E-04  0.367E-02    1.89       1.0  T
   4    -11.9724463 -0.242593E-04  0.102E-02    1.88       3.0  T
   5    -11.9724483 -0.197696E-05  0.453E-03    1.88       6.7  T
   6    -11.9724481  0.192869E-06  0.467E-03    1.88       6.5  T
   7    -11.9724485 -0.431216E-06  0.126E-03    1.88      23.9  T
   8    -11.9724485 -0.234399E-07  0.256E-04    1.88     117.9  T
   9    -11.9724485 -0.814868E-09  0.121E-04    1.88     248.8  T
     SCC iter.                  ...        0 min,  0.002 sec
     gradient                   ...        0 min,  0.000 sec
 * total energy  :   -11.7291574 Eh     change       -0.4310054E-05 Eh
   gradient norm :     0.0006374 Eh/α   predicted    -0.1806384E-05 ( -58.09%)
   displ. norm   :     0.0712858 α      lambda       -0.5545068E-05
   maximum displ.:     0.0372203 α      in ANC's #3, #7, #1, ...

   *** GEOMETRY OPTIMIZATION CONVERGED AFTER 75 ITERATIONS ***

------------------------------------------------------------------------
 total energy gain   :        -0.6498225 Eh     -407.7698 kcal/mol
 total RMSD          :         2.2335701 a0        1.1820 Å
 total power (kW/mol):       -22.7481157 (step)-4752.7584 (real)
------------------------------------------------------------------------

 ANCopt (total)                0 d,  0 h,  0 min,  0.359 sec
 optimizer setup                ...        0 min,  0.000 sec (  0.008%)
 model hessian                  ...        0 min,  0.001 sec (  0.176%)
 ANC generation                 ...        0 min,  0.000 sec (  0.117%)
 coordinate transformation      ...        0 min,  0.000 sec (  0.060%)
 single point calculation       ...        0 min,  0.341 sec ( 95.053%)
 optimization log               ...        0 min,  0.002 sec (  0.641%)
 hessian update                 ...        0 min,  0.011 sec (  3.140%)
 rational function              ...        0 min,  0.002 sec (  0.434%)

================
 final structure:
================
11
 xtb: 6.5.1 (conda-forge)
Be           0.74102920739727       -0.25096241697055        0.18786431173792
B            1.93925690495043        0.87578458673259        0.62045063772976
B            0.50216124707881       -0.42037990634156        1.88955262082627
C            1.67014340869302        0.66755224188266        1.97244758311391
C            1.11823945011616        0.19156594473757        3.17007935475817
C            1.17081373643065        0.28285378730687        4.48073242134438
H            0.53914616517902       -0.28310878886678        5.14602893693673
H            1.89971197832930        0.97475361220078        4.99281208096410
H            2.80459938948214        1.84407065752476        5.68457187794559
H            0.18872839872902        0.47672279561398        7.78024187785013
H           -0.25382988638641       -0.09086851378950        8.07521829672190

 Bond Distances (Angstroems)
 ---------------------------
Be1-B2=1.7007        Be1-B3=1.7267        Be1-C4=2.2117        B2-Be1=1.7007        B2-C4=1.3942         B3-Be1=1.7267        
B3-C4=1.5983         B3-C5=1.5472         C4-Be1=2.2117        C4-B2=1.3942         C4-B3=1.5983         C4-C5=1.4020         
C5-B3=1.5472         C5-C4=1.4020         C5-C6=1.3149         C6-C5=1.3149         C6-H7=1.0779         C6-H8=1.1279         
H7-C6=1.0779         H8-C6=1.1279         H10-H11=0.7778       H11-H10=0.7778       
 H  H  Rav=0.7778 sigma=0.0000  Rmin=0.7778  Rmax=0.7778     1
 B  Be Rav=1.7137 sigma=0.0130  Rmin=1.7007  Rmax=1.7267     2
 C  H  Rav=1.1029 sigma=0.0250  Rmin=1.0779  Rmax=1.1279     2
 C  Be Rav=2.2117 sigma=0.0000  Rmin=2.2117  Rmax=2.2117     1
 C  B  Rav=1.5132 sigma=0.0867  Rmin=1.3942  Rmax=1.5983     3
 C  C  Rav=1.3584 sigma=0.0435  Rmin=1.3149  Rmax=1.4020     2

 selected bond angles (degree)
 --------------------
B3-Be1-B2= 84.94               C4-Be1-B2= 39.07               C4-Be1-B3= 45.87               C4-B2-Be1= 90.67               
C4-B3-Be1= 83.29               C5-B3-Be1=136.20               C5-B3-C4= 52.91                B2-C4-Be1= 50.26               
B3-C4-Be1= 50.84               B3-C4-B2=101.09                C5-C4-Be1=112.51               C5-C4-B2=162.77                
C5-C4-B3= 61.68                C4-C5-B3= 65.42                C6-C5-B3=150.27                C6-C5-C4=144.31                
H7-C6-C5=123.73                H8-C6-C5=121.40                H8-C6-H7=114.87                

 selected dihedral angles (degree)
 ---------------------------------
C4-B2-Be1-B3=  0.00           C4-B3-Be1-B2=  0.00           C5-B3-Be1-B2=  0.00           C5-B3-Be1-C4=  0.00           
B3-C4-B2-Be1=  0.00           C5-C4-B2-Be1=  0.00           Be1-C4-B3-C5=180.00           B2-C4-B3-Be1=  0.00           
B2-C4-B3-C5=179.99            C5-C4-B3-Be1=180.00           C4-C5-B3-Be1=  0.00           C6-C5-B3-Be1=179.87           
C6-C5-B3-C4=179.87            B3-C5-C4-Be1=  0.00           B3-C5-C4-B2=  0.00            C6-C5-C4-Be1=180.11           
C6-C5-C4-B2=180.09            C6-C5-C4-B3=180.11            H7-C6-C5-B3=  0.13            H7-C6-C5-C4=179.93            
H8-C6-C5-B3=180.02            H8-C6-C5-C4=359.81            

 CMA Distance (Angstroems)
 ---------------------------
R(CMA):  2.6775
           -------------------------------------------------
          |                Final Singlepoint                |
           -------------------------------------------------

          ...................................................
          :                      SETUP                      :
          :.................................................:
          :  # basis functions                  29          :
          :  # atomic orbitals                  29          :
          :  # shells                           17          :
          :  # electrons                        25          :
          :  max. iterations                   250          :
          :  Hamiltonian                  GFN2-xTB          :
          :  restarted?                      false          :
          :  GBSA solvation                  false          :
          :  PC potential                    false          :
          :  electronic temp.          300.0000000     K    :
          :  accuracy                    1.0000000          :
          :  -> integral cutoff          0.2500000E+02      :
          :  -> integral neglect         0.1000000E-07      :
          :  -> SCF convergence          0.1000000E-05 Eh   :
          :  -> wf. convergence          0.1000000E-03 e    :
          :  Broyden damping             0.4000000          :
          ...................................................

 iter      E             dE          RMSdq      gap      omega  full diag
   1    -11.9724485 -0.119724E+02  0.580E-05    1.88       0.0  T
   2    -11.9724485  0.495497E-10  0.584E-05    1.88     516.1  T
   3    -11.9724485 -0.290612E-10  0.473E-05    1.88     637.3  T

   *** convergence criteria satisfied after 3 iterations ***

         #    Occupation            Energy/Eh            Energy/eV
      -------------------------------------------------------------
         1        2.0000           -0.5827298             -15.8569
       ...           ...                  ...                  ...
         7        2.0000           -0.4172455             -11.3538
         8        2.0000           -0.4147075             -11.2848
         9        2.0000           -0.3617543              -9.8438
        10        2.0000           -0.3462719              -9.4225
        11        2.0000           -0.3312026              -9.0125
        12        2.0000           -0.3255888              -8.8597
        13        1.0000           -0.3020788              -8.2200 (HOMO)
        14                         -0.2329769              -6.3396 (LUMO)
        15                         -0.2056461              -5.5959
        16                         -0.2047225              -5.5708
        17                         -0.1680901              -4.5740
        18                         -0.0809236              -2.2020
       ...                                ...                  ...
        29                          1.4405162              39.1984
      -------------------------------------------------------------
                  HL-Gap            0.0691018 Eh            1.8804 eV
             Fermi-level           -0.2906802 Eh           -7.9098 eV

 SCC (total)                   0 d,  0 h,  0 min,  0.002 sec
 SCC setup                      ...        0 min,  0.000 sec (  2.907%)
 Dispersion                     ...        0 min,  0.000 sec (  8.520%)
 classical contributions        ...        0 min,  0.000 sec (  1.799%)
 integral evaluation            ...        0 min,  0.000 sec (  9.628%)
 iterations                     ...        0 min,  0.001 sec ( 37.865%)
 molecular gradient             ...        0 min,  0.001 sec ( 36.912%)
 printout                       ...        0 min,  0.000 sec (  1.676%)

         :::::::::::::::::::::::::::::::::::::::::::::::::::::
         ::                     SUMMARY                     ::
         :::::::::::::::::::::::::::::::::::::::::::::::::::::
         :: total energy             -11.729157397740 Eh    ::
         :: gradient norm              0.000637251582 Eh/a0 ::
         :: HOMO-LUMO gap              1.880356390018 eV    ::
         ::.................................................::
         :: SCC energy               -11.972448525819 Eh    ::
         :: -> isotropic ES           -0.010962882449 Eh    ::
         :: -> anisotropic ES          0.006531729640 Eh    ::
         :: -> anisotropic XC         -0.008127309475 Eh    ::
         :: -> dispersion             -0.005858961004 Eh    ::
         :: repulsion energy           0.243304384501 Eh    ::
         :: add. restraining           0.000000000000 Eh    ::
         :: total charge               0.000000000000 e     ::
         :::::::::::::::::::::::::::::::::::::::::::::::::::::

           -------------------------------------------------
          |                Property Printout                |
           -------------------------------------------------

    * Orbital Energies and Occupations

         #    Occupation            Energy/Eh            Energy/eV
      -------------------------------------------------------------
         1        2.0000           -0.5827298             -15.8569
         2        2.0000           -0.5520187             -15.0212
         3        2.0000           -0.4888680             -13.3028
         4        2.0000           -0.4643218             -12.6348
         5        2.0000           -0.4514549             -12.2847
         6        2.0000           -0.4441951             -12.0872
         7        2.0000           -0.4172455             -11.3538
         8        2.0000           -0.4147075             -11.2848
         9        2.0000           -0.3617543              -9.8438
        10        2.0000           -0.3462719              -9.4225
        11        2.0000           -0.3312026              -9.0125
        12        2.0000           -0.3255888              -8.8597
        13        1.0000           -0.3020788              -8.2200 (HOMO)
        14                         -0.2329769              -6.3396 (LUMO)
        15                         -0.2056461              -5.5959
        16                         -0.2047225              -5.5708
        17                         -0.1680901              -4.5740
        18                         -0.0809236              -2.2020
        19                         -0.0294077              -0.8002
        20                         -0.0246248              -0.6701
        21                          0.1347785               3.6675
        22                          0.1548092               4.2126
        23                          0.2708246               7.3695
        24                          0.2903581               7.9010
       ...                                ...                  ...
        29                          1.4405162              39.1984
      -------------------------------------------------------------
                  HL-Gap            0.0691018 Eh            1.8804 eV
             Fermi-level           -0.2906802 Eh           -7.9098 eV

     #   Z          covCN         q      C6AA      α(0)
     1   4 Be       2.306     0.379    14.893     8.909
     2   5 B        1.905     0.020    43.629    13.904
     3   5 B        2.794     0.059    20.457     7.559
     4   6 C        3.272    -0.195    31.572     9.057
     5   6 C        2.863    -0.040    28.985     8.825
     6   6 C        2.826    -0.110    30.776     9.090
     7   1 H        0.926     0.016     2.801     2.617
     8   1 H        0.918     0.082     1.962     2.191
     9   1 H        0.000    -0.210    28.968     9.841
    10   1 H        0.810     0.009     2.949     2.697
    11   1 H        0.810    -0.009     3.272     2.841

 Mol. C6AA /au·bohr⁶  :       1853.860609
 Mol. C8AA /au·bohr⁸  :      50114.227016
 Mol. α(0) /au        :         77.531464


Wiberg/Mayer (AO) data.
largest (>0.10) Wiberg bond orders for each atom

 ---------------------------------------------------------------------------
     #   Z sym  total        # sym  WBO       # sym  WBO       # sym  WBO
 ---------------------------------------------------------------------------
     1   4 Be   2.109 --     2 B    0.997     3 B    0.931     4 C    0.110
     2   5 B    3.297 --     4 C    1.712     1 Be   0.997     3 B    0.373
                             6 C    0.176
     3   5 B    3.069 --     1 Be   0.931     5 C    0.893     4 C    0.828
                             2 B    0.373
     4   6 C    3.884 --     2 B    1.712     5 C    1.162     3 B    0.828
                             1 Be   0.110
     5   6 C    3.942 --     6 C    1.807     4 C    1.162     3 B    0.893
     6   6 C    3.821 --     5 C    1.807     7 H    0.960     8 H    0.770
                             2 B    0.176
     7   1 H    0.990 --     6 C    0.960
     8   1 H    0.982 --     6 C    0.770     9 H    0.192
     9   1 H    0.282 --     8 H    0.192
    10   1 H    1.000 --    11 H    0.999
    11   1 H    1.000 --    10 H    0.999
 ---------------------------------------------------------------------------

Topologies differ in total number of bonds
Writing topology from bond orders to xtbtopo.mol

molecular dipole:
                 x           y           z       tot (Debye)
 q only:       -1.083      -1.095      -2.868
   full:       -0.949      -0.959      -2.479       7.173
molecular quadrupole (traceless):
                xx          xy          yy          xz          yz          zz
 q only:        8.194      -6.698      14.200     -19.994     -12.128     -22.394
  q+dip:        5.090      -4.350      10.520     -17.032     -10.142     -15.610
   full:        6.273      -8.352      12.186     -15.120      -8.562     -18.459

           -------------------------------------------------
          |                Geometry Summary                 |
           -------------------------------------------------

      molecular mass/u    :       71.7061506
Note: The following floating-point exceptions are signalling: IEEE_UNDERFLOW_FLAG
normal termination of xtb
   center of mass at/Å    :        1.1971760       0.2694660       2.4592263
  moments of inertia/u·Å² :        0.3857899E+02   0.2306891E+03   0.2680116E+03
rotational constants/cm⁻¹ :        0.4369641E+00   0.7307510E-01   0.6289889E-01

 * 8 selected distances

     #   Z          #   Z                                           value/Å
     1   4 Be       2   5 B                                       1.7007175
     1   4 Be       3   5 B                                       1.7267032 (max)
     2   5 B        4   6 C                                       1.3941588
     3   5 B        5   6 C                                       1.5471843
     4   6 C        5   6 C                                       1.4019569
     5   6 C        6   6 C                                       1.3148800
     6   6 C        7   1 H                                       1.0779319
    10   1 H       11   1 H                                       0.7778361 (min)

 * 5 distinct bonds (by element types)

   Z      Z             #   av. dist./Å        max./Å        min./Å
   1 H    1 H           1     0.7778361     0.7778361     0.7778361
   4 Be   5 B           2     1.7137103     1.7267032     1.7007175
   1 H    6 C           1     1.0779319     1.0779319     1.0779319
   5 B    6 C           2     1.4706716     1.5471843     1.3941588
   6 C    6 C           2     1.3584184     1.4019569     1.3148800


optimized geometry written to: xtbopt.xyz


           -------------------------------------------------
          | TOTAL ENERGY              -11.729157397740 Eh   |
          | GRADIENT NORM               0.000637251582 Eh/α |
          | HOMO-LUMO GAP               1.880356390018 eV   |
           -------------------------------------------------
########################################################################
[WARNING] Runtime exception occurred
-3- restart_readRestart: Dimension missmatch in restart file.
-2- restart_readRestart: Multiplicity missmatch in restart file.
-1- restart_readRestart: Number of electron missmatch in restart file.
########################################################################

------------------------------------------------------------------------
 * finished run on 2025/06/07 at 03:27:41.826     
------------------------------------------------------------------------
 total:
 * wall-time:     0 d,  0 h,  0 min,  0.375 sec
 *  cpu-time:     0 d,  0 h,  0 min,  4.954 sec
 * ratio c/w:    13.192 speedup
 SCF:
 * wall-time:     0 d,  0 h,  0 min,  0.011 sec
 *  cpu-time:     0 d,  0 h,  0 min,  0.162 sec
 * ratio c/w:    14.533 speedup
 ANC optimizer:
 * wall-time:     0 d,  0 h,  0 min,  0.361 sec
 *  cpu-time:     0 d,  0 h,  0 min,  4.755 sec
 * ratio c/w:    13.173 speedup

