      -----------------------------------------------------------      
     |                   =====================                   |     
     |                           x T B                           |     
     |                   =====================                   |     
     |                         S. Grimme                         |     
     |          Mulliken Center for Theoretical Chemistry        |     
     |                    University of Bonn                     |     
      -----------------------------------------------------------      

   * xtb version 6.5.1 (conda-forge) compiled by 'runner@Mac-1657629245115.local' on 2022-07-12

   xtb is free software: you can redistribute it and/or modify it under
   the terms of the GNU Lesser General Public License as published by
   the Free Software Foundation, either version 3 of the License, or
   (at your option) any later version.
   
   xtb is distributed in the hope that it will be useful,
   but WITHOUT ANY WARRANTY; without even the implied warranty of
   MERCHANTABILITY or FITNESS FOR A PARTICULAR PURPOSE.  See the
   GNU Lesser General Public License for more details.
   
   Cite this work as:
   * C. Bannwarth, E. Caldeweyher, S. Ehlert, A. Hansen, P. Pracht,
     J. Seibert, S. Spicher, S. Grimme, WIREs Comput. Mol. Sci., 2020, 11,
     e01493. DOI: 10.1002/wcms.1493
   
   for GFN2-xTB:
   * C. Bannwarth, S. Ehlert and S. Grimme., J. Chem. Theory Comput., 2019,
     15, 1652-1671. DOI: 10.1021/acs.jctc.8b01176
   for GFN1-xTB:
   * S. Grimme, C. Bannwarth, P. Shushkov, J. Chem. Theory Comput., 2017,
     13, 1989-2009. DOI: 10.1021/acs.jctc.7b00118
   for GFN0-xTB:
   * P. Pracht, E. Caldeweyher, S. Ehlert, S. Grimme, ChemRxiv, 2019, preprint.
     DOI: 10.26434/chemrxiv.8326202.v1
   for GFN-FF:
   * S. Spicher and S. Grimme, Angew. Chem. Int. Ed., 2020, 59, 15665-15673.
     DOI: 10.1002/anie.202004239
   
   for ALPB and GBSA implicit solvation:
   * S. Ehlert, M. Stahn, S. Spicher, S. Grimme, J. Chem. Theory Comput.,
     2021, 17, 4250-4261. DOI: 10.1021/acs.jctc.1c00471
   
   for DFT-D4:
   * E. Caldeweyher, C. Bannwarth and S. Grimme, J. Chem. Phys., 2017,
     147, 034112. DOI: 10.1063/1.4993215
   * E. Caldeweyher, S. Ehlert, A. Hansen, H. Neugebauer, S. Spicher,
     C. Bannwarth and S. Grimme, J. Chem. Phys., 2019, 150, 154122.
     DOI: 10.1063/1.5090222
   * E. Caldeweyher, J.-M. Mewes, S. Ehlert and S. Grimme, Phys. Chem. Chem. Phys.
     2020, 22, 8499-8512. DOI: 10.1039/D0CP00502A
   
   for sTDA-xTB:
   * S. Grimme and C. Bannwarth, J. Chem. Phys., 2016, 145, 054103.
     DOI: 10.1063/1.4959605
   
   in the mass-spec context:
   * V. Asgeirsson, C. Bauer and S. Grimme, Chem. Sci., 2017, 8, 4879.
     DOI: 10.1039/c7sc00601b
   * J. Koopman and S. Grimme, ACS Omega 2019, 4, 12, 15120-15133.
     DOI: 10.1021/acsomega.9b02011
   
   for metadynamics refer to:
   * S. Grimme, J. Chem. Theory Comput., 2019, 155, 2847-2862
     DOI: 10.1021/acs.jctc.9b00143
   
   for SPH calculations refer to:
   * S. Spicher and S. Grimme, J. Chem. Theory Comput., 2021, 17, 1701-1714
     DOI: 10.1021/acs.jctc.0c01306
   
   with help from (in alphabetical order)
   P. Atkinson, C. Bannwarth, F. Bohle, G. Brandenburg, E. Caldeweyher
   M. Checinski, S. Dohm, S. Ehlert, S. Ehrlich, I. Gerasimov, C. Hölzer
   A. Katbashev, J. Koopman, C. Lavigne, S. Lehtola, F. März, M. Müller,
   F. Musil, H. Neugebauer, J. Pisarek, C. Plett, P. Pracht, F. Pultar,
   J. Seibert, P. Shushkov, S. Spicher, M. Stahn, M. Steiner, T. Strunk,
   J. Stückrath, T. Rose, and J. Unsleber
   
 * started run on 2025/06/07 at 03:27:41.839     

           -------------------------------------------------
          |                Calculation Setup                |
           -------------------------------------------------

          program call               : xtb B2BeC3H6.xyz --gfn 2 --opt
          coordinate file            : B2BeC3H6.xyz
          omp threads                :                    16

   ID    Z sym.   atoms
    1    4 Be     1
    2    5 B      2, 3
    3    6 C      4-6
    4    1 H      7-12

molecular fragmentation (1/2 indicates fragments):
111222222222
# atoms in fragment 1/2:     3     9
 fragment masses (1/2) :       30.63       42.08
CMA distance (Bohr)    :   5.752
constraining FC (au)   :  0.0500

           -------------------------------------------------
          |                 G F N 2 - x T B                 |
           -------------------------------------------------

        Reference                      10.1021/acs.jctc.8b01176
      * Hamiltonian:
        H0-scaling (s, p, d)           1.850000    2.230000    2.230000
        zeta-weighting                 0.500000
      * Dispersion:
        s8                             2.700000
        a1                             0.520000
        a2                             5.000000
        s9                             5.000000
      * Repulsion:
        kExp                           1.500000    1.000000
        rExp                           1.000000
      * Coulomb:
        alpha                          2.000000
        third order                    shell-resolved
        anisotropic                    true
        a3                             3.000000
        a5                             4.000000
        cn-shift                       1.200000
        cn-exp                         4.000000
        max-rad                        5.000000


          ...................................................
          :                      SETUP                      :
          :.................................................:
          :  # basis functions                  30          :
          :  # atomic orbitals                  30          :
          :  # shells                           18          :
          :  # electrons                        26          :
          :  max. iterations                   250          :
          :  Hamiltonian                  GFN2-xTB          :
          :  restarted?                      false          :
          :  GBSA solvation                  false          :
          :  PC potential                    false          :
          :  electronic temp.          300.0000000     K    :
          :  accuracy                    1.0000000          :
          :  -> integral cutoff          0.2500000E+02      :
          :  -> integral neglect         0.1000000E-07      :
          :  -> SCF convergence          0.1000000E-05 Eh   :
          :  -> wf. convergence          0.1000000E-03 e    :
          :  Broyden damping             0.4000000          :
          ...................................................

 iter      E             dE          RMSdq      gap      omega  full diag
   1      8.7144341  0.871443E+01  0.211E+01    0.74       0.0  T
   2     -6.8591382 -0.155736E+02  0.209E+01    0.58       1.0  T
   3     -7.1075007 -0.248362E+00  0.149E+01    0.72       1.0  T
   4     -6.6700336  0.437467E+00  0.158E+01    0.92       1.0  T
   5     -7.0524717 -0.382438E+00  0.116E+01    0.28       1.0  T
   6     -2.9018043  0.415067E+01  0.184E+01    0.32       1.0  T
   7     -9.5648660 -0.666306E+01  0.107E+01    0.67       1.0  T
   8     -9.8451279 -0.280262E+00  0.105E+01    0.71       1.0  T
   9     -9.7998946  0.452333E-01  0.106E+01    0.65       1.0  T
  10     -9.4911116  0.308783E+00  0.102E+01    0.59       1.0  T
  11      7.4511562  0.169423E+02  0.219E+01    0.52       1.0  T
  12     -4.8959867 -0.123471E+02  0.124E+01    0.63       1.0  T
  13     -7.9939365 -0.309795E+01  0.125E+01    0.40       1.0  T
  14    -11.4979127 -0.350398E+01  0.559E+00    0.18       1.0  T
  15    -11.1797563  0.318156E+00  0.595E+00    0.07       1.0  T
  16     -9.3108804  0.186888E+01  0.111E+01    0.10       1.0  T
  17    -11.6452917 -0.233441E+01  0.426E+00    0.55       1.0  T
  18    -11.6413012  0.399051E-02  0.481E+00    0.47       1.0  T
  19    -11.6548105 -0.135092E-01  0.464E+00    0.50       1.0  T
  20    -11.6494297  0.538080E-02  0.461E+00    0.55       1.0  T
  21    -11.2613463  0.388083E+00  0.631E+00    0.62       1.0  T
  22    -11.4026330 -0.141287E+00  0.568E+00    0.64       1.0  T
  23    -11.4690867 -0.664537E-01  0.668E+00    0.60       1.0  T
  24    -11.6196821 -0.150595E+00  0.829E+00    0.58       1.0  T
  25    -11.6258493 -0.616729E-02  0.945E+00    0.57       1.0  T
  26    -11.6192426  0.660678E-02  0.106E+01    0.55       1.0  T
  27    -11.6271602 -0.791759E-02  0.875E+00    0.57       1.0  T
  28    -11.4790296  0.148131E+00  0.415E+00    0.63       1.0  T
  29    -11.3608555  0.118174E+00  0.316E+00    0.68       1.0  T
  30    -11.3654527 -0.459719E-02  0.361E+00    0.68       1.0  T
  31    -11.2382959  0.127157E+00  0.503E+00    0.65       1.0  T
  32    -11.2432929 -0.499699E-02  0.441E+00    0.64       1.0  T
  33    -11.3138821 -0.705892E-01  0.341E+00    0.64       1.0  T
  34    -11.4247962 -0.110914E+00  0.242E+00    0.64       1.0  T
  35    -11.5329613 -0.108165E+00  0.187E+00    0.65       1.0  T
  36    -11.6031220 -0.701607E-01  0.153E+00    0.64       1.0  T
  37    -11.6361104 -0.329884E-01  0.137E+00    0.64       1.0  T
  38    -11.6496005 -0.134901E-01  0.137E+00    0.64       1.0  T
  39    -11.6525155 -0.291498E-02  0.145E+00    0.64       1.0  T
  40    -11.6541935 -0.167800E-02  0.147E+00    0.64       1.0  T
  41    -11.6543846 -0.191099E-03  0.153E+00    0.64       1.0  T
  42    -11.6594223 -0.503772E-02  0.150E+00    0.63       1.0  T
  43    -11.6658363 -0.641403E-02  0.145E+00    0.63       1.0  T
  44    -11.6703520 -0.451568E-02  0.129E+00    0.63       1.0  T
  45    -11.6751571 -0.480511E-02  0.104E+00    0.63       1.0  T
  46    -11.6802833 -0.512615E-02  0.799E-01    0.63       1.0  T
  47    -11.6843673 -0.408401E-02  0.615E-01    0.62       1.0  T
  48    -11.6876931 -0.332588E-02  0.465E-01    0.62       1.0  T
  49    -11.6896456 -0.195248E-02  0.350E-01    0.62       1.0  T
  50    -11.6911235 -0.147790E-02  0.234E-01    0.61       1.0  T
  51    -11.6918147 -0.691175E-03  0.142E-01    0.61       1.0  T
  52    -11.6921752 -0.360511E-03  0.751E-02    0.61       1.0  T
  53    -11.6922670 -0.917797E-04  0.407E-02    0.61       1.0  T
  54    -11.6923246 -0.575944E-04  0.124E-02    0.61       2.3  T
  55    -11.6923276 -0.303098E-05  0.603E-03    0.61       4.8  T
  56    -11.6923286 -0.103867E-05  0.558E-03    0.61       5.2  T
  57    -11.6923287 -0.903175E-07  0.634E-03    0.61       4.5  T
  58    -11.6923290 -0.297860E-06  0.457E-03    0.61       6.3  T
  59    -11.6923292 -0.113087E-06  0.332E-03    0.61       8.7  T
  60    -11.6923294 -0.217319E-06  0.108E-03    0.61      26.8  T
  61    -11.6923294 -0.253117E-07  0.198E-04    0.61     145.5  T
  62    -11.6923294  0.163176E-08  0.239E-04    0.61     120.6  T

   *** convergence criteria satisfied after 62 iterations ***

         #    Occupation            Energy/Eh            Energy/eV
      -------------------------------------------------------------
         1        2.0000           -0.5779720             -15.7274
       ...           ...                  ...                  ...
         7        2.0000           -0.3588109              -9.7637
         8        2.0000           -0.3423039              -9.3146
         9        2.0000           -0.3133800              -8.5275
        10        2.0000           -0.3089568              -8.4071
        11        2.0000           -0.3008317              -8.1860
        12        2.0000           -0.2861248              -7.7859
        13        2.0000           -0.2661362              -7.2419 (HOMO)
        14        0.0000           -0.2438290              -6.6349 (LUMO)
        15                         -0.2339664              -6.3666
        16                         -0.2222770              -6.0485
        17                         -0.2206763              -6.0049
        18                         -0.1970747              -5.3627
       ...                                ...                  ...
        30                          0.7827136              21.2987
      -------------------------------------------------------------
                  HL-Gap            0.0223072 Eh            0.6070 eV
             Fermi-level           -0.2549826 Eh           -6.9384 eV

 SCC (total)                   0 d,  0 h,  0 min,  0.019 sec
 SCC setup                      ...        0 min,  0.000 sec (  0.454%)
 Dispersion                     ...        0 min,  0.000 sec (  0.717%)
 classical contributions        ...        0 min,  0.000 sec (  0.550%)
 integral evaluation            ...        0 min,  0.000 sec (  1.163%)
 iterations                     ...        0 min,  0.017 sec ( 92.816%)
 molecular gradient             ...        0 min,  0.001 sec (  3.641%)
 printout                       ...        0 min,  0.000 sec (  0.588%)

         :::::::::::::::::::::::::::::::::::::::::::::::::::::
         ::                     SUMMARY                     ::
         :::::::::::::::::::::::::::::::::::::::::::::::::::::
         :: total energy             -11.601653310951 Eh    ::
         :: gradient norm              0.290151258616 Eh/a0 ::
         :: HOMO-LUMO gap              0.607009804203 eV    ::
         ::.................................................::
         :: SCC energy               -11.692329391295 Eh    ::
         :: -> isotropic ES           -0.052416444224 Eh    ::
         :: -> anisotropic ES          0.008534682974 Eh    ::
         :: -> anisotropic XC         -0.020233478053 Eh    ::
         :: -> dispersion             -0.009012611999 Eh    ::
         :: repulsion energy           0.090695122184 Eh    ::
         :: add. restraining           0.000000000000 Eh    ::
         :: total charge              -0.000000000494 e     ::
         :::::::::::::::::::::::::::::::::::::::::::::::::::::

      ----------------------------------------------------------- 
     |                   =====================                   |
     |                        A N C O P T                        |
     |                   =====================                   |
     |               Approximate Normal Coordinate               |
     |                Rational Function Optimizer                |
      ----------------------------------------------------------- 

          ...................................................
          :                      SETUP                      :
          :.................................................:
          :   optimization level            normal          :
          :   max. optcycles                   200          :
          :   ANC micro-cycles                  20          :
          :   degrees of freedom                30          :
          :.................................................:
          :   RF solver                   davidson          :
          :   write xtbopt.log                true          :
          :   linear?                        false          :
          :   energy convergence         0.5000000E-05 Eh   :
          :   grad. convergence          0.1000000E-02 Eh/α :
          :   maximium RF displ.         1.0000000          :
          :   Hlow (freq-cutoff)         0.1000000E-01      :
          :   Hmax (freq-cutoff)         5.0000000          :
          :   S6 in model hess.         20.0000000          :
          ...................................................

generating ANC from model Hessian ...
Using Lindh-Hessian (1995)
 Shifting diagonal of input Hessian by    1.4111609098360119E-002
 Lowest  eigenvalues of input Hessian
    0.010000    0.011857    0.013566    0.000000    0.000000    0.000000
    0.000000    0.000000    0.000000    0.014215    0.014759    0.014891
    0.015307    0.016641    0.017347    0.017708    0.018488    0.020482
 Highest eigenvalues
    0.257157    0.278649    0.326062    0.381485    0.411011    0.415460


........................................................................
.............................. CYCLE    1 ..............................
........................................................................
   1    -11.6923294 -0.116923E+02  0.164E-04    0.61       0.0  T
   2    -11.6923294  0.140694E-07  0.951E-04    0.61      30.3  T
   3    -11.6923294 -0.624133E-08  0.751E-04    0.61      38.5  T
     SCC iter.                  ...        0 min,  0.001 sec
     gradient                   ...        0 min,  0.001 sec
 * total energy  :   -11.6016533 Eh     change        0.6865495E-08 Eh
   gradient norm :     0.2900414 Eh/α   predicted     0.0000000E+00 (-100.00%)
   displ. norm   :     0.7345065 α      lambda       -0.2037036E+00
   maximum displ.:     0.3853585 α      in ANC's #20, #26, #16, ...

........................................................................
.............................. CYCLE    2 ..............................
........................................................................
   1    -11.8371941 -0.118372E+02  0.233E+00    0.89       0.0  T
   2    -11.7314926  0.105702E+00  0.286E+00    1.07       1.0  T
   3    -11.7020042  0.294883E-01  0.309E+00    0.68       1.0  T
   4    -11.8379463 -0.135942E+00  0.127E+00    1.04       1.0  T
   5    -11.8502860 -0.123398E-01  0.109E+00    0.92       1.0  T
   6    -11.8394309  0.108551E-01  0.143E+00    0.90       1.0  T
   7    -11.8407153 -0.128436E-02  0.127E+00    0.90       1.0  T
   8    -11.8609029 -0.201875E-01  0.463E-01    0.98       1.0  T
   9    -11.8640537 -0.315087E-02  0.213E-01    0.96       1.0  T
  10    -11.8644823 -0.428620E-03  0.960E-02    0.99       1.0  T
  11    -11.8646012 -0.118808E-03  0.634E-02    0.98       1.0  T
  12    -11.8646923 -0.911193E-04  0.163E-02    0.98       1.8  T
  13    -11.8646935 -0.118854E-05  0.899E-03    0.98       3.2  T
  14    -11.8646943 -0.869258E-06  0.361E-03    0.98       8.0  T
  15    -11.8646946 -0.225549E-06  0.379E-04    0.98      76.2  T
  16    -11.8646946 -0.105741E-08  0.220E-04    0.98     131.4  T
     SCC iter.                  ...        0 min,  0.004 sec
     gradient                   ...        0 min,  0.001 sec
 * total energy  :   -11.7850652 Eh     change       -0.1834119E+00 Eh
   gradient norm :     0.2505166 Eh/α   predicted    -0.1568008E+00 ( -14.51%)
   displ. norm   :     0.9286093 α      lambda       -0.2307470E+00
   maximum displ.:     0.6427478 α      in ANC's #26, #20, #15, ...

........................................................................
.............................. CYCLE    3 ..............................
........................................................................
   1    -12.0884907 -0.120885E+02  0.364E+00    1.17       0.0  T
   2    -11.8791376  0.209353E+00  0.440E+00    1.31       1.0  T
   3    -12.0129680 -0.133830E+00  0.299E+00    0.91       1.0  T
   4    -11.8863110  0.126657E+00  0.398E+00    1.50       1.0  T
   5    -12.0590896 -0.172779E+00  0.168E+00    1.44       1.0  T
   6    -12.1372404 -0.781508E-01  0.635E-01    1.30       1.0  T
   7    -12.1256442  0.115962E-01  0.109E+00    1.22       1.0  T
   8    -12.1284016 -0.275746E-02  0.935E-01    1.23       1.0  T
   9    -12.1392812 -0.108796E-01  0.226E-01    1.33       1.0  T
  10    -12.1392103  0.709789E-04  0.110E-01    1.34       1.0  T
  11    -12.1392508 -0.405917E-04  0.108E-01    1.35       1.0  T
  12    -12.1393012 -0.503799E-04  0.473E-02    1.35       1.0  T
  13    -12.1393057 -0.449220E-05  0.328E-02    1.34       1.0  T
  14    -12.1393229 -0.171448E-04  0.773E-03    1.34       3.7  T
  15    -12.1393236 -0.787542E-06  0.317E-03    1.34       9.1  T
  16    -12.1393237 -0.499802E-07  0.847E-04    1.34      34.1  T
  17    -12.1393237 -0.312908E-08  0.279E-04    1.34     103.4  T
     SCC iter.                  ...        0 min,  0.004 sec
     gradient                   ...        0 min,  0.000 sec
 * total energy  :   -11.9483018 Eh     change       -0.1632366E+00 Eh
   gradient norm :     0.1473659 Eh/α   predicted    -0.2148619E+00 (  31.63%)
   displ. norm   :     0.7670493 α      lambda       -0.9364642E-01
   maximum displ.:     0.4335616 α      in ANC's #16, #8, #23, ...

........................................................................
.............................. CYCLE    4 ..............................
........................................................................
   1    -12.2101368 -0.122101E+02  0.372E+00    1.55       0.0  T
   2    -12.1117784  0.983584E-01  0.308E+00    1.49       1.0  T
   3    -11.8503213  0.261457E+00  0.421E+00    1.19       1.0  T
   4    -12.0267554 -0.176434E+00  0.336E+00    1.63       1.0  T
   5    -12.2166158 -0.189860E+00  0.122E+00    1.56       1.0  T
   6    -12.2283857 -0.117700E-01  0.971E-01    1.67       1.0  T
   7    -12.2456223 -0.172366E-01  0.651E-01    1.61       1.0  T
   8    -12.2456476 -0.252405E-04  0.575E-01    1.62       1.0  T
   9    -12.2452110  0.436564E-03  0.319E-01    1.61       1.0  T
  10    -12.2460460 -0.834998E-03  0.823E-02    1.62       1.0  T
  11    -12.2461281 -0.820870E-04  0.543E-02    1.62       1.0  T
  12    -12.2461316 -0.351587E-05  0.160E-02    1.62       1.8  T
  13    -12.2461360 -0.439274E-05  0.647E-03    1.62       4.5  T
  14    -12.2461365 -0.556710E-06  0.141E-03    1.62      20.5  T
  15    -12.2461366 -0.259562E-07  0.451E-04    1.62      64.1  T
  16    -12.2461366 -0.192049E-08  0.131E-04    1.62     220.9  T
     SCC iter.                  ...        0 min,  0.004 sec
     gradient                   ...        0 min,  0.001 sec
 * total energy  :   -12.0103231 Eh     change       -0.6202131E-01 Eh
   gradient norm :     0.1681069 Eh/α   predicted    -0.7437231E-01 (  19.91%)
   displ. norm   :     0.7759048 α      lambda       -0.8146127E-01
   maximum displ.:     0.5948445 α      in ANC's #16, #12, #30, ...

........................................................................
.............................. CYCLE    5 ..............................
........................................................................
   1    -12.2604630 -0.122605E+02  0.310E+00    1.76       0.0  T
   2    -12.0806758  0.179787E+00  0.360E+00    1.56       1.0  T
   3    -12.2029407 -0.122265E+00  0.228E+00    1.81       1.0  T
   4    -12.1096520  0.932887E-01  0.249E+00    1.56       1.0  T
   5    -12.2568973 -0.147245E+00  0.954E-01    1.64       1.0  T
   6    -12.2828015 -0.259042E-01  0.465E-01    1.67       1.0  T
   7    -12.2833507 -0.549186E-03  0.405E-01    1.66       1.0  T
   8    -12.2823758  0.974923E-03  0.382E-01    1.65       1.0  T
   9    -12.2832324 -0.856638E-03  0.177E-01    1.67       1.0  T
  10    -12.2836582 -0.425814E-03  0.993E-02    1.66       1.0  T
  11    -12.2837445 -0.862946E-04  0.767E-02    1.66       1.0  T
  12    -12.2838045 -0.599351E-04  0.305E-02    1.66       1.0  T
  13    -12.2838177 -0.132177E-04  0.301E-03    1.67       9.6  T
  14    -12.2838177  0.169244E-07  0.191E-03    1.67      15.1  T
  15    -12.2838177 -0.589739E-07  0.432E-04    1.67      66.8  T
  16    -12.2838177 -0.412801E-08  0.765E-05    1.67     377.5  T
     SCC iter.                  ...        0 min,  0.003 sec
     gradient                   ...        0 min,  0.001 sec
 * total energy  :   -12.0411244 Eh     change       -0.3080131E-01 Eh
   gradient norm :     0.2137878 Eh/α   predicted    -0.6525163E-01 ( 111.85%)
   displ. norm   :     0.5722398 α      lambda       -0.9167912E-01
   maximum displ.:     0.3287334 α      in ANC's #15, #21, #30, ...

........................................................................
.............................. CYCLE    6 ..............................
........................................................................
   1    -12.2957858 -0.122958E+02  0.230E+00    1.73       0.0  T
   2    -12.2523035  0.434823E-01  0.183E+00    1.33       1.0  T
   3    -12.2160586  0.362449E-01  0.208E+00    1.82       1.0  T
   4    -12.2770551 -0.609965E-01  0.151E+00    1.59       1.0  T
   5    -12.2935270 -0.164719E-01  0.645E-01    1.68       1.0  T
   6    -12.3050998 -0.115728E-01  0.283E-01    1.64       1.0  T
   7    -12.3060218 -0.922067E-03  0.262E-01    1.63       1.0  T
   8    -12.3061433 -0.121412E-03  0.147E-01    1.62       1.0  T
   9    -12.3062186 -0.753767E-04  0.810E-02    1.63       1.0  T
  10    -12.3062691 -0.504904E-04  0.211E-02    1.61       1.4  T
  11    -12.3062745 -0.538525E-05  0.142E-02    1.62       2.0  T
  12    -12.3062752 -0.712969E-06  0.479E-03    1.61       6.0  T
  13    -12.3062754 -0.176176E-06  0.167E-03    1.62      17.3  T
  14    -12.3062754 -0.181176E-07  0.525E-04    1.62      55.0  T
  15    -12.3062754 -0.390003E-08  0.107E-04    1.62     269.8  T
     SCC iter.                  ...        0 min,  0.005 sec
     gradient                   ...        0 min,  0.001 sec
 * total energy  :   -12.0751569 Eh     change       -0.3403251E-01 Eh
   gradient norm :     0.1681844 Eh/α   predicted    -0.6085010E-01 (  78.80%)
   displ. norm   :     0.5653551 α      lambda       -0.6459335E-01
   maximum displ.:     0.3144260 α      in ANC's #26, #9, #5, ...

........................................................................
.............................. CYCLE    7 ..............................
........................................................................
   1    -12.3840903 -0.123841E+02  0.185E+00    2.29       0.0  T
   2    -12.3668349  0.172553E-01  0.159E+00    2.08       1.0  T
   3    -12.3869434 -0.201084E-01  0.118E+00    2.35       1.0  T
   4    -12.3755224  0.114210E-01  0.894E-01    2.18       1.0  T
   5    -12.3853896 -0.986724E-02  0.681E-01    2.21       1.0  T
   6    -12.3968260 -0.114363E-01  0.177E-01    2.22       1.0  T
   7    -12.3972455 -0.419465E-03  0.856E-02    2.24       1.0  T
   8    -12.3968895  0.355921E-03  0.134E-01    2.24       1.0  T
   9    -12.3972283 -0.338718E-03  0.516E-02    2.23       1.0  T
  10    -12.3972715 -0.432930E-04  0.175E-02    2.23       1.6  T
  11    -12.3972796 -0.802720E-05  0.377E-03    2.23       7.6  T
  12    -12.3972797 -0.984212E-07  0.159E-03    2.23      18.2  T
  13    -12.3972797 -0.422493E-07  0.119E-04    2.23     243.2  T
  14    -12.3972797 -0.240092E-10  0.742E-05    2.23     389.0  T
     SCC iter.                  ...        0 min,  0.003 sec
     gradient                   ...        0 min,  0.001 sec
 * total energy  :   -12.0766770 Eh     change       -0.1520052E-02 Eh
   gradient norm :     0.3079556 Eh/α   predicted    -0.4261955E-01 (2703.82%)
   displ. norm   :     0.5256158 α      lambda       -0.1000239E+00
   maximum displ.:     0.2569436 α      in ANC's #10, #16, #24, ...

........................................................................
.............................. CYCLE    8 ..............................
........................................................................
   1    -12.3699789 -0.123700E+02  0.195E+00    1.82       0.0  T
   2    -12.3231409  0.468380E-01  0.184E+00    1.89       1.0  T
   3    -12.2850849  0.380560E-01  0.252E+00    1.85       1.0  T
   4    -12.3687394 -0.836545E-01  0.824E-01    1.78       1.0  T
   5    -12.3725888 -0.384939E-02  0.505E-01    1.83       1.0  T
   6    -12.3770399 -0.445111E-02  0.270E-01    1.84       1.0  T
   7    -12.3784355 -0.139564E-02  0.160E-01    1.84       1.0  T
   8    -12.3784128  0.227013E-04  0.125E-01    1.83       1.0  T
   9    -12.3785441 -0.131245E-03  0.639E-02    1.84       1.0  T
  10    -12.3786393 -0.951775E-04  0.117E-02    1.83       2.5  T
  11    -12.3786421 -0.279294E-05  0.639E-03    1.83       4.5  T
  12    -12.3786425 -0.484625E-06  0.100E-03    1.83      28.7  T
  13    -12.3786425 -0.319882E-08  0.371E-04    1.83      77.8  T
  14    -12.3786425 -0.798002E-09  0.105E-04    1.83     274.2  T
     SCC iter.                  ...        0 min,  0.003 sec
     gradient                   ...        0 min,  0.000 sec
 * total energy  :   -12.0634263 Eh     change        0.1325067E-01 Eh
   gradient norm :     0.3762540 Eh/α   predicted    -0.6382885E-01 (-581.70%)
   displ. norm   :     0.5986371 α      lambda       -0.1530098E+00
   maximum displ.:     0.3636614 α      in ANC's #14, #26, #23, ...

........................................................................
.............................. CYCLE    9 ..............................
........................................................................
   1    -12.3074890 -0.123075E+02  0.157E+00    1.76       0.0  T
   2    -12.2939742  0.135148E-01  0.148E+00    1.82       1.0  T
   3    -12.3043662 -0.103920E-01  0.969E-01    1.62       1.0  T
   4    -12.2998081  0.455808E-02  0.838E-01    1.85       1.0  T
   5    -12.3109247 -0.111166E-01  0.396E-01    1.77       1.0  T
   6    -12.3137614 -0.283673E-02  0.114E-01    1.71       1.0  T
   7    -12.3134089  0.352573E-03  0.146E-01    1.74       1.0  T
   8    -12.3137583 -0.349443E-03  0.846E-02    1.73       1.0  T
   9    -12.3138965 -0.138219E-03  0.193E-02    1.73       1.5  T
  10    -12.3138995 -0.293420E-05  0.107E-02    1.73       2.7  T
  11    -12.3139005 -0.109346E-05  0.209E-03    1.73      13.8  T
  12    -12.3139006 -0.475841E-07  0.437E-04    1.73      66.1  T
  13    -12.3139006 -0.538247E-09  0.241E-04    1.73     119.5  T
     SCC iter.                  ...        0 min,  0.002 sec
     gradient                   ...        0 min,  0.001 sec
 * total energy  :   -12.0859642 Eh     change       -0.2253790E-01 Eh
   gradient norm :     0.1867317 Eh/α   predicted    -0.1039217E+00 ( 361.10%)
   displ. norm   :     0.5373630 α      lambda       -0.6973499E-01
   maximum displ.:     0.2364436 α      in ANC's #15, #23, #10, ...

........................................................................
.............................. CYCLE   10 ..............................
........................................................................
   1    -12.4265789 -0.124266E+02  0.181E+00    2.39       0.0  T
   2    -12.4058308  0.207481E-01  0.156E+00    1.72       1.0  T
   3    -12.4213644 -0.155336E-01  0.115E+00    2.42       1.0  T
   4    -12.3862211  0.351433E-01  0.132E+00    2.14       1.0  T
   5    -12.4343478 -0.481267E-01  0.337E-01    2.16       1.0  T
   6    -12.4370761 -0.272826E-02  0.140E-01    2.16       1.0  T
   7    -12.4372235 -0.147373E-03  0.120E-01    2.16       1.0  T
   8    -12.4369944  0.229037E-03  0.127E-01    2.14       1.0  T
   9    -12.4372204 -0.226014E-03  0.380E-02    2.14       1.0  T
  10    -12.4372628 -0.424102E-04  0.141E-02    2.15       2.0  T
  11    -12.4372627  0.178528E-06  0.102E-02    2.15       2.8  T
  12    -12.4372631 -0.416567E-06  0.129E-03    2.15      22.3  T
  13    -12.4372631 -0.822554E-08  0.647E-04    2.15      44.6  T
  14    -12.4372631 -0.101396E-07  0.169E-04    2.15     170.3  T
     SCC iter.                  ...        0 min,  0.002 sec
     gradient                   ...        0 min,  0.001 sec
 * total energy  :   -12.1053396 Eh     change       -0.1937533E-01 Eh
   gradient norm :     0.2471861 Eh/α   predicted    -0.4493581E-01 ( 131.92%)
   displ. norm   :     0.4312115 α      lambda       -0.6124581E-01
   maximum displ.:     0.1651978 α      in ANC's #15, #29, #8, ...

........................................................................
.............................. CYCLE   11 ..............................
........................................................................
   1    -12.3873718 -0.123874E+02  0.130E+00    2.10       0.0  T
   2    -12.3518180  0.355539E-01  0.156E+00    2.05       1.0  T
   3    -12.3827163 -0.308983E-01  0.103E+00    2.18       1.0  T
   4    -12.3891005 -0.638425E-02  0.533E-01    2.04       1.0  T
   5    -12.3929076 -0.380707E-02  0.247E-01    2.10       1.0  T
   6    -12.3936265 -0.718932E-03  0.180E-01    2.14       1.0  T
   7    -12.3943476 -0.721102E-03  0.483E-02    2.12       1.0  T
   8    -12.3943446  0.308694E-05  0.250E-02    2.12       1.2  T
   9    -12.3943468 -0.225892E-05  0.151E-02    2.12       1.9  T
  10    -12.3943506 -0.378592E-05  0.679E-03    2.12       4.2  T
  11    -12.3943507 -0.135882E-06  0.234E-03    2.12      12.3  T
  12    -12.3943509 -0.116732E-06  0.379E-04    2.12      76.2  T
  13    -12.3943509 -0.526319E-09  0.127E-04    2.12     227.2  T
     SCC iter.                  ...        0 min,  0.002 sec
     gradient                   ...        0 min,  0.000 sec
 * total energy  :   -12.1164406 Eh     change       -0.1110109E-01 Eh
   gradient norm :     0.1539170 Eh/α   predicted    -0.3631704E-01 ( 227.15%)
   displ. norm   :     0.4734236 α      lambda       -0.4055225E-01
   maximum displ.:     0.2428033 α      in ANC's #10, #16, #3, ...

........................................................................
.............................. CYCLE   12 ..............................
........................................................................
   1    -12.3661884 -0.123662E+02  0.182E+00    1.96       0.0  T
   2    -12.3135853  0.526031E-01  0.196E+00    1.96       1.0  T
   3    -12.3400826 -0.264973E-01  0.175E+00    1.93       1.0  T
   4    -12.3632919 -0.232093E-01  0.814E-01    1.93       1.0  T
   5    -12.3750959 -0.118040E-01  0.168E-01    1.98       1.0  T
   6    -12.3749272  0.168668E-03  0.156E-01    1.96       1.0  T
   7    -12.3749892 -0.619670E-04  0.145E-01    1.97       1.0  T
   8    -12.3752821 -0.292926E-03  0.666E-02    1.97       1.0  T
   9    -12.3753099 -0.277802E-04  0.322E-02    1.97       1.0  T
  10    -12.3753210 -0.110829E-04  0.971E-03    1.97       3.0  T
  11    -12.3753217 -0.723652E-06  0.213E-03    1.97      13.5  T
  12    -12.3753218 -0.600237E-07  0.701E-04    1.97      41.2  T
  13    -12.3753218 -0.390186E-08  0.100E-04    1.97     287.5  T
     SCC iter.                  ...        0 min,  0.002 sec
     gradient                   ...        0 min,  0.001 sec
 * total energy  :   -12.1262622 Eh     change       -0.9821543E-02 Eh
   gradient norm :     0.1290358 Eh/α   predicted    -0.2482062E-01 ( 152.72%)
   displ. norm   :     0.3397916 α      lambda       -0.1796421E-01
   maximum displ.:     0.1845053 α      in ANC's #1, #10, #8, ...

........................................................................
.............................. CYCLE   13 ..............................
........................................................................
   1    -12.4015761 -0.124016E+02  0.859E-01    2.20       0.0  T
   2    -12.3987671  0.280893E-02  0.650E-01    2.13       1.0  T
   3    -12.3949629  0.380425E-02  0.766E-01    2.23       1.0  T
   4    -12.3991918 -0.422893E-02  0.412E-01    2.19       1.0  T
   5    -12.4021803 -0.298848E-02  0.112E-01    2.19       1.0  T
   6    -12.4023974 -0.217104E-03  0.833E-02    2.18       1.0  T
   7    -12.4024419 -0.445231E-04  0.601E-02    2.19       1.0  T
   8    -12.4024638 -0.219125E-04  0.410E-02    2.19       1.0  T
   9    -12.4024944 -0.305112E-04  0.841E-03    2.19       3.4  T
  10    -12.4024960 -0.160131E-05  0.247E-03    2.19      11.7  T
  11    -12.4024960 -0.223114E-07  0.503E-04    2.19      57.4  T
  12    -12.4024960 -0.353726E-10  0.323E-04    2.19      89.5  T
     SCC iter.                  ...        0 min,  0.002 sec
     gradient                   ...        0 min,  0.001 sec
 * total energy  :   -12.1376666 Eh     change       -0.1140443E-01 Eh
   gradient norm :     0.0456154 Eh/α   predicted    -0.1001916E-01 ( -12.15%)
   displ. norm   :     0.5938475 α      lambda       -0.1748398E-01
   maximum displ.:     0.2970641 α      in ANC's #10, #7, #19, ...

........................................................................
.............................. CYCLE   14 ..............................
........................................................................
   1    -12.4565690 -0.124566E+02  0.165E+00    2.48       0.0  T
   2    -12.4237762  0.327928E-01  0.171E+00    1.82       1.0  T
   3    -12.4519995 -0.282233E-01  0.121E+00    2.49       1.0  T
   4    -12.4474478  0.455173E-02  0.101E+00    2.34       1.0  T
   5    -12.4635554 -0.161076E-01  0.367E-01    2.37       1.0  T
   6    -12.4667581 -0.320276E-02  0.122E-01    2.32       1.0  T
   7    -12.4668769 -0.118799E-03  0.840E-02    2.33       1.0  T
   8    -12.4667850  0.919697E-04  0.729E-02    2.32       1.0  T
   9    -12.4669170 -0.131991E-03  0.581E-03    2.33       5.0  T
  10    -12.4669170 -0.492595E-07  0.390E-03    2.33       7.4  T
  11    -12.4669171 -0.699040E-07  0.111E-03    2.33      26.0  T
  12    -12.4669171  0.255291E-09  0.769E-04    2.33      37.6  T
  13    -12.4669171 -0.749194E-08  0.156E-04    2.33     185.3  T
     SCC iter.                  ...        0 min,  0.003 sec
     gradient                   ...        0 min,  0.000 sec
 * total energy  :   -12.1350849 Eh     change        0.2581754E-02 Eh
   gradient norm :     0.1273458 Eh/α   predicted    -0.1182489E-01 (-558.02%)
   displ. norm   :     0.3128074 α      lambda       -0.2055324E-01
   maximum displ.:     0.1479753 α      in ANC's #8, #12, #10, ...

........................................................................
.............................. CYCLE   15 ..............................
........................................................................
   1    -12.4225603 -0.124226E+02  0.990E-01    2.29       0.0  T
   2    -12.4104935  0.120669E-01  0.101E+00    2.34       1.0  T
   3    -12.4195789 -0.908544E-02  0.771E-01    2.31       1.0  T
   4    -12.4207180 -0.113914E-02  0.507E-01    2.26       1.0  T
   5    -12.4253335 -0.461543E-02  0.150E-01    2.33       1.0  T
   6    -12.4258808 -0.547384E-03  0.642E-02    2.31       1.0  T
   7    -12.4259275 -0.467025E-04  0.340E-02    2.31       1.0  T
   8    -12.4259319 -0.434563E-05  0.221E-02    2.32       1.3  T
   9    -12.4259347 -0.276646E-05  0.819E-03    2.31       3.5  T
  10    -12.4259358 -0.109511E-05  0.230E-03    2.31      12.6  T
  11    -12.4259358  0.343577E-08  0.789E-04    2.31      36.6  T
  12    -12.4259358 -0.408438E-08  0.526E-04    2.31      54.9  T
     SCC iter.                  ...        0 min,  0.002 sec
     gradient                   ...        0 min,  0.001 sec
 * total energy  :   -12.1461688 Eh     change       -0.1108393E-01 Eh
   gradient norm :     0.0292639 Eh/α   predicted    -0.1128217E-01 (   1.79%)
   displ. norm   :     0.4941506 α      lambda       -0.8360515E-02
   maximum displ.:     0.2861415 α      in ANC's #5, #3, #8, ...

........................................................................
.............................. CYCLE   16 ..............................
........................................................................
   1    -12.4295282 -0.124295E+02  0.147E+00    2.29       0.0  T
   2    -12.4169760  0.125522E-01  0.135E+00    2.17       1.0  T
   3    -12.4245996 -0.762354E-02  0.103E+00    2.28       1.0  T
   4    -12.4148763  0.972327E-02  0.892E-01    2.23       1.0  T
   5    -12.4332468 -0.183705E-01  0.213E-01    2.29       1.0  T
   6    -12.4338060 -0.559252E-03  0.170E-01    2.27       1.0  T
   7    -12.4341465 -0.340499E-03  0.924E-02    2.26       1.0  T
   8    -12.4341670 -0.204166E-04  0.636E-02    2.27       1.0  T
   9    -12.4342282 -0.612385E-04  0.189E-02    2.27       1.5  T
  10    -12.4342368 -0.859950E-05  0.452E-03    2.27       6.4  T
  11    -12.4342368  0.263557E-07  0.292E-03    2.27       9.9  T
  12    -12.4342369 -0.161368E-06  0.571E-04    2.27      50.6  T
  13    -12.4342369 -0.685558E-08  0.722E-05    2.27     399.7  T
     SCC iter.                  ...        0 min,  0.002 sec
     gradient                   ...        0 min,  0.001 sec
 * total energy  :   -12.1468710 Eh     change       -0.7021831E-03 Eh
   gradient norm :     0.0474690 Eh/α   predicted    -0.5201013E-02 ( 640.69%)
   displ. norm   :     0.3863979 α      lambda       -0.9002820E-02
   maximum displ.:     0.2713409 α      in ANC's #10, #15, #3, ...

........................................................................
.............................. CYCLE   17 ..............................
........................................................................
   1    -12.4229668 -0.124230E+02  0.103E+00    2.27       0.0  T
   2    -12.4169892  0.597762E-02  0.968E-01    2.25       1.0  T
   3    -12.4190339 -0.204476E-02  0.753E-01    2.28       1.0  T
   4    -12.4179349  0.109906E-02  0.583E-01    2.28       1.0  T
   5    -12.4243098 -0.637498E-02  0.125E-01    2.27       1.0  T
   6    -12.4246334 -0.323575E-03  0.636E-02    2.28       1.0  T
   7    -12.4246779 -0.445119E-04  0.449E-02    2.28       1.0  T
   8    -12.4246996 -0.216314E-04  0.157E-02    2.28       1.8  T
   9    -12.4247016 -0.201636E-05  0.427E-03    2.28       6.8  T
  10    -12.4247017 -0.146251E-06  0.213E-03    2.28      13.5  T
  11    -12.4247017 -0.101357E-07  0.521E-04    2.28      55.4  T
  12    -12.4247017 -0.193348E-09  0.341E-04    2.28      84.5  T
     SCC iter.                  ...        0 min,  0.002 sec
     gradient                   ...        0 min,  0.001 sec
 * total energy  :   -12.1508531 Eh     change       -0.3982169E-02 Eh
   gradient norm :     0.0462598 Eh/α   predicted    -0.5173486E-02 (  29.92%)
   displ. norm   :     0.3610992 α      lambda       -0.6049069E-02
   maximum displ.:     0.1556846 α      in ANC's #9, #5, #4, ...

........................................................................
.............................. CYCLE   18 ..............................
........................................................................
   1    -12.4289341 -0.124289E+02  0.737E-01    2.36       0.0  T
   2    -12.4248708  0.406331E-02  0.602E-01    2.26       1.0  T
   3    -12.4168822  0.798866E-02  0.764E-01    2.41       1.0  T
   4    -12.4262425 -0.936031E-02  0.502E-01    2.35       1.0  T
   5    -12.4292476 -0.300512E-02  0.142E-01    2.35       1.0  T
   6    -12.4298358 -0.588177E-03  0.537E-02    2.34       1.0  T
   7    -12.4297469  0.888144E-04  0.747E-02    2.34       1.0  T
   8    -12.4297489 -0.199715E-05  0.666E-02    2.34       1.0  T
   9    -12.4298525 -0.103566E-03  0.850E-03    2.34       3.4  T
  10    -12.4298534 -0.870292E-06  0.343E-03    2.34       8.4  T
  11    -12.4298535 -0.165274E-06  0.999E-04    2.34      28.9  T
  12    -12.4298536 -0.567340E-08  0.426E-04    2.34      67.8  T
     SCC iter.                  ...        0 min,  0.002 sec
     gradient                   ...        0 min,  0.000 sec
 * total energy  :   -12.1508391 Eh     change        0.1402664E-04 Eh
   gradient norm :     0.0520444 Eh/α   predicted    -0.3418907E-02 (*******%)
   displ. norm   :     0.2996173 α      lambda       -0.6077054E-02
   maximum displ.:     0.1423269 α      in ANC's #13, #1, #10, ...

........................................................................
.............................. CYCLE   19 ..............................
........................................................................
   1    -12.4256166 -0.124256E+02  0.629E-01    2.31       0.0  T
   2    -12.4242200  0.139661E-02  0.507E-01    2.30       1.0  T
   3    -12.4232420  0.978046E-03  0.469E-01    2.30       1.0  T
   4    -12.4247932 -0.155126E-02  0.274E-01    2.29       1.0  T
   5    -12.4261075 -0.131425E-02  0.434E-02    2.31       1.0  T
   6    -12.4260598  0.477010E-04  0.564E-02    2.30       1.0  T
   7    -12.4261330 -0.732189E-04  0.234E-02    2.31       1.2  T
   8    -12.4261374 -0.437708E-05  0.967E-03    2.31       3.0  T
   9    -12.4261378 -0.413124E-06  0.449E-03    2.31       6.4  T
  10    -12.4261381 -0.331650E-06  0.129E-03    2.31      22.4  T
  11    -12.4261381 -0.440939E-08  0.433E-04    2.31      66.6  T
  12    -12.4261381 -0.420219E-09  0.105E-04    2.31     275.1  T
     SCC iter.                  ...        0 min,  0.002 sec
     gradient                   ...        0 min,  0.000 sec
 * total energy  :   -12.1527060 Eh     change       -0.1866849E-02 Eh
   gradient norm :     0.0366873 Eh/α   predicted    -0.3311300E-02 (  77.37%)
   displ. norm   :     0.3803731 α      lambda       -0.6741887E-02
   maximum displ.:     0.1776132 α      in ANC's #5, #2, #3, ...

........................................................................
.............................. CYCLE   20 ..............................
........................................................................
   1    -12.4392100 -0.124392E+02  0.121E+00    2.20       0.0  T
   2    -12.4355575  0.365248E-02  0.867E-01    2.24       1.0  T
   3    -12.3894369  0.461206E-01  0.139E+00    2.11       1.0  T
   4    -12.4233327 -0.338958E-01  0.836E-01    2.23       1.0  T
   5    -12.4394806 -0.161479E-01  0.167E-01    2.20       1.0  T
   6    -12.4400738 -0.593256E-03  0.920E-02    2.21       1.0  T
   7    -12.4400533  0.205030E-04  0.110E-01    2.20       1.0  T
   8    -12.4400923 -0.389754E-04  0.836E-02    2.20       1.0  T
   9    -12.4401513 -0.590255E-04  0.149E-02    2.20       1.9  T
  10    -12.4401551 -0.379515E-05  0.474E-03    2.20       6.1  T
  11    -12.4401552 -0.864275E-07  0.255E-03    2.20      11.3  T
  12    -12.4401553 -0.119536E-06  0.442E-04    2.20      65.3  T
  13    -12.4401553 -0.899176E-09  0.113E-04    2.20     254.6  T
     SCC iter.                  ...        0 min,  0.002 sec
     gradient                   ...        0 min,  0.000 sec
 * total energy  :   -12.1512259 Eh     change        0.1480083E-02 Eh
   gradient norm :     0.0772014 Eh/α   predicted    -0.3858657E-02 (-360.71%)
   displ. norm   :     0.2346625 α      lambda       -0.8801444E-02
   maximum displ.:     0.1176448 α      in ANC's #8, #11, #17, ...
 * RMSD in coord.:     1.5644746 α      energy gain  -0.5495726E+00 Eh

generating ANC from model Hessian ...
Using Lindh-Hessian (1995)
 Shifting diagonal of input Hessian by    1.0336883685450346E-002
 Lowest  eigenvalues of input Hessian
    0.010000    0.010175    0.010288    0.000000    0.000000    0.000000
    0.000000    0.000000    0.000000    0.010358    0.010405    0.010484
    0.010734    0.010810    0.010854    0.011074    0.011537    0.011757
 Highest eigenvalues
    0.551200    0.593927    0.875490    0.939356    1.409533    2.313814


........................................................................
.............................. CYCLE   21 ..............................
........................................................................
   1    -12.4323129 -0.124323E+02  0.503E-01    2.28       0.0  T
   2    -12.4301707  0.214220E-02  0.472E-01    2.26       1.0  T
   3    -12.4308134 -0.642689E-03  0.379E-01    2.29       1.0  T
   4    -12.4289002  0.191321E-02  0.417E-01    2.26       1.0  T
   5    -12.4327833 -0.388317E-02  0.819E-02    2.29       1.0  T
   6    -12.4329333 -0.150002E-03  0.359E-02    2.28       1.0  T
   7    -12.4329418 -0.841022E-05  0.245E-02    2.28       1.2  T
   8    -12.4329409  0.844772E-06  0.151E-02    2.28       1.9  T
   9    -12.4329441 -0.321044E-05  0.605E-03    2.28       4.8  T
  10    -12.4329448 -0.717052E-06  0.299E-03    2.28       9.7  T
  11    -12.4329450 -0.153156E-06  0.462E-04    2.28      62.5  T
  12    -12.4329450 -0.782940E-09  0.127E-04    2.28     228.1  T
     SCC iter.                  ...        0 min,  0.002 sec
     gradient                   ...        0 min,  0.000 sec
 * total energy  :   -12.1540687 Eh     change       -0.2842832E-02 Eh
   gradient norm :     0.0316208 Eh/α   predicted     0.0000000E+00 (-100.00%)
   displ. norm   :     0.3441578 α      lambda       -0.3642960E-02
   maximum displ.:     0.2370742 α      in ANC's #13, #10, #6, ...

........................................................................
.............................. CYCLE   22 ..............................
........................................................................
   1    -12.4374704 -0.124375E+02  0.491E-01    2.31       0.0  T
   2    -12.4373695  0.100830E-03  0.318E-01    2.30       1.0  T
   3    -12.4334766  0.389299E-02  0.433E-01    2.32       1.0  T
   4    -12.4369783 -0.350172E-02  0.140E-01    2.30       1.0  T
   5    -12.4374685 -0.490225E-03  0.482E-02    2.31       1.0  T
   6    -12.4375062 -0.376949E-04  0.275E-02    2.30       1.1  T
   7    -12.4375039  0.233971E-05  0.216E-02    2.30       1.3  T
   8    -12.4375105 -0.667574E-05  0.945E-03    2.30       3.1  T
   9    -12.4375115 -0.962565E-06  0.298E-03    2.30       9.7  T
  10    -12.4375116 -0.644280E-07  0.197E-03    2.30      14.7  T
  11    -12.4375116 -0.938836E-07  0.225E-04    2.30     128.1  T
  12    -12.4375116 -0.105381E-09  0.444E-05    2.30     650.5  T
     SCC iter.                  ...        0 min,  0.002 sec
     gradient                   ...        0 min,  0.001 sec
 * total energy  :   -12.1567037 Eh     change       -0.2634984E-02 Eh
   gradient norm :     0.0130158 Eh/α   predicted    -0.2037225E-02 ( -22.69%)
   displ. norm   :     0.4048633 α      lambda       -0.1965318E-02
   maximum displ.:     0.2334363 α      in ANC's #13, #14, #10, ...

........................................................................
.............................. CYCLE   23 ..............................
........................................................................
   1    -12.4395973 -0.124396E+02  0.565E-01    2.30       0.0  T
   2    -12.4394741  0.123207E-03  0.367E-01    2.29       1.0  T
   3    -12.4347239  0.475017E-02  0.518E-01    2.31       1.0  T
   4    -12.4395262 -0.480225E-02  0.851E-02    2.30       1.0  T
   5    -12.4396103 -0.840653E-04  0.544E-02    2.30       1.0  T
   6    -12.4395995  0.107182E-04  0.431E-02    2.30       1.0  T
   7    -12.4396246 -0.250228E-04  0.272E-02    2.30       1.1  T
   8    -12.4396418 -0.172006E-04  0.632E-03    2.30       4.6  T
   9    -12.4396422 -0.471855E-06  0.252E-03    2.30      11.4  T
  10    -12.4396423 -0.347930E-07  0.867E-04    2.30      33.3  T
  11    -12.4396423 -0.245758E-08  0.299E-04    2.30      96.4  T
     SCC iter.                  ...        0 min,  0.002 sec
     gradient                   ...        0 min,  0.001 sec
 * total energy  :   -12.1580115 Eh     change       -0.1307831E-02 Eh
   gradient norm :     0.0112494 Eh/α   predicted    -0.1143722E-02 ( -12.55%)
   displ. norm   :     0.4810627 α      lambda       -0.1503774E-02
   maximum displ.:     0.3605990 α      in ANC's #13, #7, #6, ...

........................................................................
.............................. CYCLE   24 ..............................
........................................................................
   1    -12.4336012 -0.124336E+02  0.712E-01    2.27       0.0  T
   2    -12.4334499  0.151371E-03  0.447E-01    2.27       1.0  T
   3    -12.4261375  0.731236E-02  0.631E-01    2.25       1.0  T
   4    -12.4335378 -0.740035E-02  0.860E-02    2.27       1.0  T
   5    -12.4335801 -0.422158E-04  0.622E-02    2.26       1.0  T
   6    -12.4335656  0.144145E-04  0.645E-02    2.27       1.0  T
   7    -12.4336557 -0.900617E-04  0.126E-02    2.27       2.3  T
   8    -12.4336573 -0.158763E-05  0.838E-03    2.27       3.4  T
   9    -12.4336577 -0.412289E-06  0.350E-03    2.27       8.2  T
  10    -12.4336578 -0.739484E-07  0.123E-03    2.27      23.5  T
  11    -12.4336578 -0.163166E-07  0.457E-04    2.27      63.2  T
  12    -12.4336578 -0.699192E-09  0.824E-05    2.27     350.5  T
     SCC iter.                  ...        0 min,  0.002 sec
     gradient                   ...        0 min,  0.001 sec
 * total energy  :   -12.1586618 Eh     change       -0.6502466E-03 Eh
   gradient norm :     0.0124779 Eh/α   predicted    -0.9258919E-03 (  42.39%)
   displ. norm   :     0.2731680 α      lambda       -0.9855885E-03
   maximum displ.:     0.1909918 α      in ANC's #14, #13, #5, ...

........................................................................
.............................. CYCLE   25 ..............................
........................................................................
   1    -12.4389531 -0.124390E+02  0.424E-01    2.26       0.0  T
   2    -12.4388795  0.735553E-04  0.283E-01    2.26       1.0  T
   3    -12.4361752  0.270432E-02  0.363E-01    2.24       1.0  T
   4    -12.4385444 -0.236918E-02  0.134E-01    2.27       1.0  T
   5    -12.4389766 -0.432228E-03  0.303E-02    2.26       1.0  T
   6    -12.4389638  0.128005E-04  0.363E-02    2.26       1.0  T
   7    -12.4389818 -0.179967E-04  0.145E-02    2.26       2.0  T
   8    -12.4389844 -0.252699E-05  0.681E-03    2.26       4.2  T
   9    -12.4389854 -0.105689E-05  0.201E-03    2.26      14.3  T
  10    -12.4389854 -0.787304E-08  0.108E-03    2.26      26.8  T
  11    -12.4389854 -0.219694E-07  0.167E-04    2.26     172.8  T
  12    -12.4389854 -0.664464E-10  0.665E-05    2.26     433.9  T
     SCC iter.                  ...        0 min,  0.003 sec
     gradient                   ...        0 min,  0.001 sec
 * total energy  :   -12.1592483 Eh     change       -0.5865018E-03 Eh
   gradient norm :     0.0088352 Eh/α   predicted    -0.5295623E-03 (  -9.71%)
   displ. norm   :     0.3415160 α      lambda       -0.5441270E-03
   maximum displ.:     0.1675245 α      in ANC's #13, #14, #7, ...

........................................................................
.............................. CYCLE   26 ..............................
........................................................................
   1    -12.4333350 -0.124333E+02  0.553E-01    2.24       0.0  T
   2    -12.4332598  0.752285E-04  0.351E-01    2.25       1.0  T
   3    -12.4285042  0.475558E-02  0.431E-01    2.21       1.0  T
   4    -12.4327399 -0.423567E-02  0.163E-01    2.25       1.0  T
   5    -12.4333585 -0.618576E-03  0.361E-02    2.24       1.0  T
   6    -12.4333537  0.478092E-05  0.326E-02    2.25       1.0  T
   7    -12.4333553 -0.158289E-05  0.262E-02    2.24       1.1  T
   8    -12.4333650 -0.978300E-05  0.135E-02    2.24       2.1  T
   9    -12.4333692 -0.418369E-05  0.188E-03    2.24      15.4  T
  10    -12.4333692 -0.714553E-08  0.109E-03    2.24      26.6  T
  11    -12.4333692 -0.230137E-07  0.252E-04    2.24     114.6  T
  12    -12.4333692 -0.209766E-09  0.954E-05    2.24     302.7  T
     SCC iter.                  ...        0 min,  0.002 sec
     gradient                   ...        0 min,  0.000 sec
 * total energy  :   -12.1592971 Eh     change       -0.4881752E-04 Eh
   gradient norm :     0.0195597 Eh/α   predicted    -0.3037982E-03 ( 522.31%)
   displ. norm   :     0.3007651 α      lambda       -0.1100086E-02
   maximum displ.:     0.1394705 α      in ANC's #13, #14, #6, ...

........................................................................
.............................. CYCLE   27 ..............................
........................................................................
   1    -12.4371952 -0.124372E+02  0.517E-01    2.22       0.0  T
   2    -12.4371003  0.948938E-04  0.338E-01    2.23       1.0  T
   3    -12.4323172  0.478312E-02  0.452E-01    2.18       1.0  T
   4    -12.4363324 -0.401522E-02  0.194E-01    2.24       1.0  T
   5    -12.4372294 -0.896961E-03  0.391E-02    2.22       1.0  T
   6    -12.4372284  0.101250E-05  0.293E-02    2.23       1.0  T
   7    -12.4372228  0.561840E-05  0.293E-02    2.22       1.0  T
   8    -12.4372326 -0.985826E-05  0.180E-02    2.22       1.6  T
   9    -12.4372401 -0.746732E-05  0.270E-03    2.23      10.7  T
  10    -12.4372403 -0.166114E-06  0.420E-04    2.23      68.7  T
  11    -12.4372403 -0.783338E-10  0.210E-04    2.23     137.3  T
     SCC iter.                  ...        0 min,  0.002 sec
     gradient                   ...        0 min,  0.001 sec
 * total energy  :   -12.1597397 Eh     change       -0.4425768E-03 Eh
   gradient norm :     0.0147379 Eh/α   predicted    -0.5997989E-03 (  35.52%)
   displ. norm   :     0.1950533 α      lambda       -0.7291351E-03
   maximum displ.:     0.1233679 α      in ANC's #7, #3, #13, ...

........................................................................
.............................. CYCLE   28 ..............................
........................................................................
   1    -12.4432003 -0.124432E+02  0.426E-01    2.22       0.0  T
   2    -12.4431483  0.519473E-04  0.270E-01    2.22       1.0  T
   3    -12.4410556  0.209269E-02  0.370E-01    2.21       1.0  T
   4    -12.4431397 -0.208409E-02  0.665E-02    2.22       1.0  T
   5    -12.4432108 -0.711132E-04  0.239E-02    2.22       1.2  T
   6    -12.4432031  0.775463E-05  0.259E-02    2.22       1.1  T
   7    -12.4432160 -0.129249E-04  0.131E-02    2.22       2.2  T
   8    -12.4432189 -0.293211E-05  0.322E-03    2.22       9.0  T
   9    -12.4432191 -0.169412E-06  0.903E-04    2.22      32.0  T
  10    -12.4432191 -0.318013E-08  0.454E-04    2.22      63.6  T
     SCC iter.                  ...        0 min,  0.002 sec
     gradient                   ...        0 min,  0.000 sec
 * total energy  :   -12.1597828 Eh     change       -0.4308447E-04 Eh
   gradient norm :     0.0182198 Eh/α   predicted    -0.3784388E-03 ( 778.36%)
   displ. norm   :     0.1016776 α      lambda       -0.4738984E-03
   maximum displ.:     0.0638773 α      in ANC's #6, #12, #14, ...

........................................................................
.............................. CYCLE   29 ..............................
........................................................................
   1    -12.4387461 -0.124387E+02  0.183E-01    2.21       0.0  T
   2    -12.4387243  0.217940E-04  0.126E-01    2.21       1.0  T
   3    -12.4384481  0.276239E-03  0.149E-01    2.22       1.0  T
   4    -12.4387327 -0.284637E-03  0.334E-02    2.21       1.0  T
   5    -12.4387550 -0.222303E-04  0.115E-02    2.21       2.5  T
   6    -12.4387531  0.188270E-05  0.126E-02    2.21       2.3  T
   7    -12.4387560 -0.290946E-05  0.590E-03    2.21       4.9  T
   8    -12.4387565 -0.497980E-06  0.136E-03    2.21      21.2  T
   9    -12.4387565 -0.239693E-07  0.736E-04    2.21      39.2  T
  10    -12.4387565 -0.335777E-08  0.212E-04    2.21     136.0  T
     SCC iter.                  ...        0 min,  0.002 sec
     gradient                   ...        0 min,  0.001 sec
 * total energy  :   -12.1601361 Eh     change       -0.3533178E-03 Eh
   gradient norm :     0.0096003 Eh/α   predicted    -0.2394015E-03 ( -32.24%)
   displ. norm   :     0.3091441 α      lambda       -0.5187187E-03
   maximum displ.:     0.1757911 α      in ANC's #6, #14, #7, ...

........................................................................
.............................. CYCLE   30 ..............................
........................................................................
   1    -12.4319103 -0.124319E+02  0.553E-01    2.19       0.0  T
   2    -12.4317736  0.136683E-03  0.379E-01    2.18       1.0  T
   3    -12.4291399  0.263366E-02  0.440E-01    2.19       1.0  T
   4    -12.4317455 -0.260555E-02  0.103E-01    2.19       1.0  T
   5    -12.4319739 -0.228383E-03  0.370E-02    2.19       1.0  T
   6    -12.4319634  0.104745E-04  0.357E-02    2.19       1.0  T
   7    -12.4319825 -0.191459E-04  0.182E-02    2.19       1.6  T
   8    -12.4319874 -0.488015E-05  0.655E-03    2.19       4.4  T
   9    -12.4319882 -0.752137E-06  0.234E-03    2.19      12.3  T
  10    -12.4319882 -0.195748E-07  0.836E-04    2.19      34.5  T
  11    -12.4319882 -0.558130E-08  0.213E-04    2.19     135.4  T
     SCC iter.                  ...        0 min,  0.002 sec
     gradient                   ...        0 min,  0.001 sec
 * total energy  :   -12.1604497 Eh     change       -0.3135843E-03 Eh
   gradient norm :     0.0114195 Eh/α   predicted    -0.2841497E-03 (  -9.39%)
   displ. norm   :     0.2286362 α      lambda       -0.3869198E-03
   maximum displ.:     0.1080014 α      in ANC's #6, #7, #14, ...

........................................................................
.............................. CYCLE   31 ..............................
........................................................................
   1    -12.4306762 -0.124307E+02  0.389E-01    2.17       0.0  T
   2    -12.4305270  0.149174E-03  0.281E-01    2.16       1.0  T
   3    -12.4293705  0.115652E-02  0.327E-01    2.18       1.0  T
   4    -12.4305096 -0.113909E-02  0.110E-01    2.17       1.0  T
   5    -12.4307382 -0.228636E-03  0.304E-02    2.17       1.0  T
   6    -12.4307287  0.947242E-05  0.314E-02    2.17       1.0  T
   7    -12.4307453 -0.165366E-04  0.175E-02    2.17       1.6  T
   8    -12.4307507 -0.547791E-05  0.435E-03    2.17       6.6  T
   9    -12.4307510 -0.263238E-06  0.199E-03    2.17      14.5  T
  10    -12.4307510 -0.205866E-07  0.598E-04    2.17      48.3  T
  11    -12.4307510 -0.207384E-09  0.210E-04    2.17     137.3  T
     SCC iter.                  ...        0 min,  0.002 sec
     gradient                   ...        0 min,  0.001 sec
 * total energy  :   -12.1607559 Eh     change       -0.3062393E-03 Eh
   gradient norm :     0.0096276 Eh/α   predicted    -0.2035753E-03 ( -33.52%)
   displ. norm   :     0.5243053 α      lambda       -0.6561534E-03
   maximum displ.:     0.2437546 α      in ANC's #7, #14, #6, ...

........................................................................
.............................. CYCLE   32 ..............................
........................................................................
   1    -12.4257023 -0.124257E+02  0.102E+00    2.10       0.0  T
   2    -12.4252354  0.466821E-03  0.705E-01    2.08       1.0  T
   3    -12.4177146  0.752081E-02  0.774E-01    2.10       1.0  T
   4    -12.4257233 -0.800869E-02  0.133E-01    2.10       1.0  T
   5    -12.4258539 -0.130605E-03  0.102E-01    2.09       1.0  T
   6    -12.4260104 -0.156423E-03  0.484E-02    2.10       1.0  T
   7    -12.4260131 -0.270209E-05  0.452E-02    2.09       1.0  T
   8    -12.4260503 -0.372851E-04  0.943E-03    2.09       3.1  T
   9    -12.4260514 -0.106084E-05  0.511E-03    2.09       5.6  T
  10    -12.4260516 -0.154648E-06  0.210E-03    2.09      13.7  T
  11    -12.4260516 -0.193199E-07  0.474E-04    2.09      60.9  T
  12    -12.4260516 -0.878808E-09  0.159E-04    2.09     181.9  T
     SCC iter.                  ...        0 min,  0.002 sec
     gradient                   ...        0 min,  0.001 sec
 * total energy  :   -12.1609528 Eh     change       -0.1968887E-03 Eh
   gradient norm :     0.0129885 Eh/α   predicted    -0.4182663E-03 ( 112.44%)
   displ. norm   :     0.1978528 α      lambda       -0.4862167E-03
   maximum displ.:     0.1035153 α      in ANC's #7, #13, #5, ...

........................................................................
.............................. CYCLE   33 ..............................
........................................................................
   1    -12.4352037 -0.124352E+02  0.456E-01    2.12       0.0  T
   2    -12.4351722  0.315167E-04  0.293E-01    2.11       1.0  T
   3    -12.4325572  0.261491E-02  0.367E-01    2.14       1.0  T
   4    -12.4351624 -0.260515E-02  0.604E-02    2.11       1.0  T
   5    -12.4351942 -0.318563E-04  0.365E-02    2.11       1.0  T
   6    -12.4352097 -0.154228E-04  0.249E-02    2.11       1.2  T
   7    -12.4352155 -0.582773E-05  0.148E-02    2.11       1.9  T
   8    -12.4352185 -0.301052E-05  0.481E-03    2.11       6.0  T
   9    -12.4352187 -0.174528E-06  0.251E-03    2.11      11.5  T
  10    -12.4352188 -0.869375E-07  0.820E-04    2.11      35.2  T
  11    -12.4352188 -0.106728E-08  0.196E-04    2.11     147.2  T
     SCC iter.                  ...        0 min,  0.002 sec
     gradient                   ...        0 min,  0.001 sec
 * total energy  :   -12.1609988 Eh     change       -0.4602825E-04 Eh
   gradient norm :     0.0104392 Eh/α   predicted    -0.2526227E-03 ( 448.84%)
   displ. norm   :     0.0972824 α      lambda       -0.3846224E-03
   maximum displ.:     0.0547984 α      in ANC's #17, #12, #16, ...

........................................................................
.............................. CYCLE   34 ..............................
........................................................................
   1    -12.4324190 -0.124324E+02  0.239E-01    2.12       0.0  T
   2    -12.4323627  0.562153E-04  0.162E-01    2.13       1.0  T
   3    -12.4313825  0.980277E-03  0.228E-01    2.10       1.0  T
   4    -12.4321094 -0.726912E-03  0.118E-01    2.12       1.0  T
   5    -12.4324413 -0.331878E-03  0.170E-02    2.12       1.7  T
   6    -12.4324404  0.903840E-06  0.151E-02    2.12       1.9  T
   7    -12.4324414 -0.104115E-05  0.916E-03    2.12       3.2  T
   8    -12.4324424 -0.991079E-06  0.557E-03    2.12       5.2  T
   9    -12.4324429 -0.519846E-06  0.144E-03    2.12      20.1  T
  10    -12.4324429 -0.338745E-07  0.469E-04    2.12      61.6  T
  11    -12.4324429 -0.479190E-08  0.878E-05    2.12     328.6  T
     SCC iter.                  ...        0 min,  0.003 sec
     gradient                   ...        0 min,  0.001 sec
 * total energy  :   -12.1610867 Eh     change       -0.8789345E-04 Eh
   gradient norm :     0.0108469 Eh/α   predicted    -0.1941308E-03 ( 120.87%)
   displ. norm   :     0.0878546 α      lambda       -0.2477074E-03
   maximum displ.:     0.0421542 α      in ANC's #17, #11, #7, ...

........................................................................
.............................. CYCLE   35 ..............................
........................................................................
   1    -12.4317434 -0.124317E+02  0.271E-01    2.11       0.0  T
   2    -12.4317131  0.303066E-04  0.184E-01    2.11       1.0  T
   3    -12.4294017  0.231140E-02  0.303E-01    2.13       1.0  T
   4    -12.4317133 -0.231160E-02  0.472E-02    2.11       1.0  T
   5    -12.4317454 -0.321522E-04  0.213E-02    2.11       1.4  T
   6    -12.4317492 -0.375071E-05  0.161E-02    2.11       1.8  T
   7    -12.4317513 -0.211812E-05  0.983E-03    2.11       2.9  T
   8    -12.4317524 -0.110820E-05  0.327E-03    2.11       8.8  T
   9    -12.4317525 -0.120292E-06  0.126E-03    2.11      22.9  T
  10    -12.4317525 -0.130931E-08  0.109E-03    2.11      26.5  T
  11    -12.4317525 -0.263749E-07  0.127E-04    2.11     228.0  T
  12    -12.4317525  0.314415E-12  0.102E-04    2.11     281.9  T
     SCC iter.                  ...        0 min,  0.003 sec
     gradient                   ...        0 min,  0.001 sec
 * total energy  :   -12.1611797 Eh     change       -0.9301451E-04 Eh
   gradient norm :     0.0062935 Eh/α   predicted    -0.1248095E-03 (  34.18%)
   displ. norm   :     0.0941942 α      lambda       -0.1193919E-03
   maximum displ.:     0.0513358 α      in ANC's #11, #15, #6, ...

........................................................................
.............................. CYCLE   36 ..............................
........................................................................
   1    -12.4316880 -0.124317E+02  0.128E-01    2.10       0.0  T
   2    -12.4316616  0.264115E-04  0.936E-02    2.10       1.0  T
   3    -12.4316170  0.446303E-04  0.885E-02    2.10       1.0  T
   4    -12.4316971 -0.801396E-04  0.240E-02    2.10       1.2  T
   5    -12.4316951  0.198943E-05  0.237E-02    2.10       1.2  T
   6    -12.4317073 -0.122015E-04  0.743E-03    2.10       3.9  T
   7    -12.4317077 -0.351967E-06  0.646E-03    2.10       4.5  T
   8    -12.4317084 -0.720199E-06  0.162E-03    2.10      17.8  T
   9    -12.4317084 -0.362364E-08  0.666E-04    2.10      43.3  T
  10    -12.4317084 -0.196110E-08  0.398E-04    2.10      72.5  T
     SCC iter.                  ...        0 min,  0.002 sec
     gradient                   ...        0 min,  0.001 sec
 * total energy  :   -12.1612299 Eh     change       -0.5016449E-04 Eh
   gradient norm :     0.0031232 Eh/α   predicted    -0.6022621E-04 (  20.06%)
   displ. norm   :     0.1216231 α      lambda       -0.1092037E-03
   maximum displ.:     0.0587645 α      in ANC's #5, #13, #6, ...

........................................................................
.............................. CYCLE   37 ..............................
........................................................................
   1    -12.4325837 -0.124326E+02  0.187E-01    2.09       0.0  T
   2    -12.4325695  0.141403E-04  0.118E-01    2.09       1.0  T
   3    -12.4321417  0.427857E-03  0.169E-01    2.11       1.0  T
   4    -12.4325067 -0.364966E-03  0.592E-02    2.09       1.0  T
   5    -12.4325894 -0.827779E-04  0.123E-02    2.09       2.3  T
   6    -12.4325891  0.357386E-06  0.116E-02    2.09       2.5  T
   7    -12.4325898 -0.707248E-06  0.828E-03    2.09       3.5  T
   8    -12.4325909 -0.112960E-05  0.171E-03    2.09      16.9  T
   9    -12.4325909 -0.216263E-08  0.832E-04    2.09      34.7  T
  10    -12.4325909 -0.970699E-08  0.306E-04    2.09      94.3  T
     SCC iter.                  ...        0 min,  0.002 sec
     gradient                   ...        0 min,  0.000 sec
 * total energy  :   -12.1612982 Eh     change       -0.6829664E-04 Eh
   gradient norm :     0.0038850 Eh/α   predicted    -0.5541036E-04 ( -18.87%)
   displ. norm   :     0.1584813 α      lambda       -0.1239145E-03
   maximum displ.:     0.0715179 α      in ANC's #14, #11, #6, ...

........................................................................
.............................. CYCLE   38 ..............................
........................................................................
   1    -12.4323188 -0.124323E+02  0.274E-01    2.09       0.0  T
   2    -12.4323028  0.159855E-04  0.176E-01    2.08       1.0  T
   3    -12.4312825  0.102029E-02  0.218E-01    2.10       1.0  T
   4    -12.4322570 -0.974536E-03  0.573E-02    2.09       1.0  T
   5    -12.4323237 -0.667233E-04  0.155E-02    2.09       1.9  T
   6    -12.4323151  0.867872E-05  0.222E-02    2.08       1.3  T
   7    -12.4323241 -0.899619E-05  0.562E-03    2.09       5.1  T
   8    -12.4323246 -0.528707E-06  0.116E-03    2.09      24.8  T
   9    -12.4323246 -0.111487E-07  0.643E-04    2.09      44.9  T
  10    -12.4323246  0.559435E-09  0.438E-04    2.09      65.9  T
     SCC iter.                  ...        0 min,  0.002 sec
     gradient                   ...        0 min,  0.003 sec
 * total energy  :   -12.1613889 Eh     change       -0.9071454E-04 Eh
   gradient norm :     0.0036018 Eh/α   predicted    -0.6351473E-04 ( -29.98%)
   displ. norm   :     0.2721734 α      lambda       -0.1503945E-03
   maximum displ.:     0.1262278 α      in ANC's #11, #14, #6, ...

........................................................................
.............................. CYCLE   39 ..............................
........................................................................
   1    -12.4317067 -0.124317E+02  0.507E-01    2.07       0.0  T
   2    -12.4315911  0.115560E-03  0.337E-01    2.06       1.0  T
   3    -12.4262020  0.538919E-02  0.506E-01    2.10       1.0  T
   4    -12.4313078 -0.510581E-02  0.142E-01    2.07       1.0  T
   5    -12.4317337 -0.425956E-03  0.280E-02    2.07       1.0  T
   6    -12.4317110  0.227306E-04  0.404E-02    2.07       1.0  T
   7    -12.4317288 -0.178491E-04  0.222E-02    2.07       1.3  T
   8    -12.4317406 -0.117186E-04  0.557E-03    2.07       5.2  T
   9    -12.4317411 -0.531145E-06  0.111E-03    2.07      26.0  T
  10    -12.4317411 -0.598368E-08  0.539E-04    2.07      53.5  T
  11    -12.4317411  0.612971E-09  0.299E-04    2.07      96.4  T
     SCC iter.                  ...        0 min,  0.003 sec
     gradient                   ...        0 min,  0.001 sec
 * total energy  :   -12.1614711 Eh     change       -0.8217253E-04 Eh
   gradient norm :     0.0026173 Eh/α   predicted    -0.8076650E-04 (  -1.71%)
   displ. norm   :     0.1264562 α      lambda       -0.6483178E-04
   maximum displ.:     0.0560361 α      in ANC's #9, #11, #6, ...

........................................................................
.............................. CYCLE   40 ..............................
........................................................................
   1    -12.4312500 -0.124313E+02  0.171E-01    2.06       0.0  T
   2    -12.4312139  0.361835E-04  0.118E-01    2.06       1.0  T
   3    -12.4308551  0.358809E-03  0.153E-01    2.07       1.0  T
   4    -12.4311666 -0.311505E-03  0.708E-02    2.06       1.0  T
   5    -12.4312627 -0.961910E-04  0.131E-02    2.06       2.2  T
   6    -12.4312613  0.141994E-05  0.133E-02    2.06       2.2  T
   7    -12.4312645 -0.314483E-05  0.477E-03    2.06       6.1  T
   8    -12.4312647 -0.236293E-06  0.165E-03    2.06      17.5  T
   9    -12.4312647 -0.234300E-07  0.689E-04    2.06      41.9  T
  10    -12.4312647 -0.259167E-08  0.370E-04    2.06      78.0  T
     SCC iter.                  ...        0 min,  0.002 sec
     gradient                   ...        0 min,  0.001 sec
 * total energy  :   -12.1615171 Eh     change       -0.4607227E-04 Eh
   gradient norm :     0.0044017 Eh/α   predicted    -0.3293626E-04 ( -28.51%)
   displ. norm   :     0.2513803 α      lambda       -0.1219420E-03
   maximum displ.:     0.1381342 α      in ANC's #9, #8, #11, ...

........................................................................
.............................. CYCLE   41 ..............................
........................................................................
   1    -12.4312958 -0.124313E+02  0.318E-01    2.05       0.0  T
   2    -12.4312036  0.922648E-04  0.216E-01    2.04       1.0  T
   3    -12.4296488  0.155474E-02  0.301E-01    2.07       1.0  T
   4    -12.4309158 -0.126698E-02  0.134E-01    2.04       1.0  T
   5    -12.4313261 -0.410301E-03  0.229E-02    2.05       1.3  T
   6    -12.4313201  0.596596E-05  0.250E-02    2.04       1.2  T
   7    -12.4313290 -0.883972E-05  0.965E-03    2.04       3.0  T
   8    -12.4313309 -0.189163E-05  0.208E-03    2.04      13.9  T
   9    -12.4313309 -0.564161E-07  0.986E-04    2.04      29.3  T
  10    -12.4313309 -0.106427E-07  0.595E-04    2.04      48.5  T
     SCC iter.                  ...        0 min,  0.004 sec
     gradient                   ...        0 min,  0.001 sec
 * total energy  :   -12.1616183 Eh     change       -0.1011951E-03 Eh
   gradient norm :     0.0051918 Eh/α   predicted    -0.6482386E-04 ( -35.94%)
   displ. norm   :     0.5506676 α      lambda       -0.2670651E-03
   maximum displ.:     0.3258080 α      in ANC's #9, #8, #12, ...

........................................................................
.............................. CYCLE   42 ..............................
........................................................................
   1    -12.4273105 -0.124273E+02  0.627E-01    2.02       0.0  T
   2    -12.4268824  0.428075E-03  0.428E-01    1.99       1.0  T
   3    -12.4223506  0.453181E-02  0.548E-01    2.04       1.0  T
   4    -12.4259982 -0.364753E-02  0.258E-01    2.01       1.0  T
   5    -12.4274699 -0.147172E-02  0.450E-02    2.01       1.0  T
   6    -12.4274197  0.501903E-04  0.593E-02    2.00       1.0  T
   7    -12.4274848 -0.651515E-04  0.180E-02    2.00       1.6  T
   8    -12.4274909 -0.605730E-05  0.390E-03    2.00       7.4  T
   9    -12.4274910 -0.693839E-07  0.271E-03    2.00      10.7  T
  10    -12.4274911 -0.114384E-06  0.116E-03    2.00      24.9  T
  11    -12.4274911 -0.811072E-08  0.355E-04    2.00      81.4  T
  12    -12.4274911 -0.613797E-09  0.141E-04    2.00     204.0  T
     SCC iter.                  ...        0 min,  0.003 sec
     gradient                   ...        0 min,  0.001 sec
 * total energy  :   -12.1617867 Eh     change       -0.1684028E-03 Eh
   gradient norm :     0.0107683 Eh/α   predicted    -0.1740257E-03 (   3.34%)
   displ. norm   :     0.2718190 α      lambda       -0.2010026E-03
   maximum displ.:     0.1805641 α      in ANC's #9, #8, #12, ...
 * RMSD in coord.:     0.9312840 α      energy gain  -0.1056086E-01 Eh

generating ANC from model Hessian ...
Using Lindh-Hessian (1995)
 Shifting diagonal of input Hessian by    1.2612240580331269E-002
 Lowest  eigenvalues of input Hessian
    0.010000    0.012536    0.012567    0.012602    0.012607    0.000000
    0.000000    0.000000    0.000000    0.000000    0.000000    0.012626
    0.012722    0.012782    0.012996    0.013143    0.013247    0.014010
 Highest eigenvalues
    0.570596    0.587101    0.842890    0.959521    1.486888    2.232560


........................................................................
.............................. CYCLE   43 ..............................
........................................................................
   1    -12.4308480 -0.124308E+02  0.314E-01    2.00       0.0  T
   2    -12.4308036  0.443792E-04  0.201E-01    2.00       1.0  T
   3    -12.4276661  0.313750E-02  0.357E-01    2.02       1.0  T
   4    -12.4308427 -0.317660E-02  0.394E-02    2.00       1.0  T
   5    -12.4308523 -0.964749E-05  0.245E-02    2.00       1.2  T
   6    -12.4308446  0.771238E-05  0.272E-02    2.00       1.1  T
   7    -12.4308584 -0.137993E-04  0.986E-03    2.00       2.9  T
   8    -12.4308602 -0.174530E-05  0.398E-03    2.00       7.3  T
   9    -12.4308603 -0.118888E-06  0.159E-03    2.00      18.2  T
  10    -12.4308603 -0.159531E-07  0.555E-04    2.00      52.0  T
  11    -12.4308603 -0.814438E-09  0.393E-04    2.00      73.4  T
     SCC iter.                  ...        0 min,  0.002 sec
     gradient                   ...        0 min,  0.000 sec
 * total energy  :   -12.1618706 Eh     change       -0.8384656E-04 Eh
   gradient norm :     0.0059070 Eh/α   predicted     0.0000000E+00 (-100.00%)
   displ. norm   :     0.0982884 α      lambda       -0.2318436E-03
   maximum displ.:     0.0557566 α      in ANC's #10, #14, #13, ...

........................................................................
.............................. CYCLE   44 ..............................
........................................................................
   1    -12.4304918 -0.124305E+02  0.331E-01    2.00       0.0  T
   2    -12.4304773  0.145165E-04  0.217E-01    2.00       1.0  T
   3    -12.4287879  0.168943E-02  0.248E-01    1.99       1.0  T
   4    -12.4304596 -0.167168E-02  0.441E-02    2.00       1.0  T
   5    -12.4304921 -0.324854E-04  0.212E-02    2.00       1.4  T
   6    -12.4304932 -0.118354E-05  0.149E-02    2.00       1.9  T
   7    -12.4304965 -0.328965E-05  0.623E-03    2.00       4.6  T
   8    -12.4304970 -0.423178E-06  0.363E-03    2.00       8.0  T
   9    -12.4304971 -0.176870E-06  0.813E-04    2.00      35.5  T
  10    -12.4304971 -0.771525E-08  0.343E-04    2.00      84.2  T
     SCC iter.                  ...        0 min,  0.002 sec
     gradient                   ...        0 min,  0.000 sec
 * total energy  :   -12.1620333 Eh     change       -0.1627285E-03 Eh
   gradient norm :     0.0024691 Eh/α   predicted    -0.1170418E-03 ( -28.08%)
   displ. norm   :     0.1629504 α      lambda       -0.1967307E-03
   maximum displ.:     0.0915496 α      in ANC's #10, #13, #14, ...

........................................................................
.............................. CYCLE   45 ..............................
........................................................................
   1    -12.4291971 -0.124292E+02  0.568E-01    2.00       0.0  T
   2    -12.4291860  0.110928E-04  0.368E-01    2.00       1.0  T
   3    -12.4272872  0.189884E-02  0.257E-01    1.98       1.0  T
[...]
   8    -12.4206911 -0.245757E-06  0.848E-04    1.84      34.1  T
   9    -12.4206911 -0.500158E-08  0.366E-04    1.84      78.9  T
     SCC iter.                  ...        0 min,  0.002 sec
     gradient                   ...        0 min,  0.000 sec
 * total energy  :   -12.1641783 Eh     change       -0.1185420E-04 Eh
   gradient norm :     0.0013166 Eh/α   predicted    -0.7106092E-05 ( -40.05%)
   displ. norm   :     0.0949223 α      lambda       -0.1284590E-04
   maximum displ.:     0.0730430 α      in ANC's #10, #9, #7, ...

........................................................................
.............................. CYCLE   75 ..............................
........................................................................
   1    -12.4216123 -0.124216E+02  0.230E-01    1.84       0.0  T
   2    -12.4216057  0.659801E-05  0.153E-01    1.84       1.0  T
   3    -12.4210855  0.520186E-03  0.170E-01    1.83       1.0  T
   4    -12.4216111 -0.525614E-03  0.150E-02    1.84       1.9  T
   5    -12.4216131 -0.197940E-05  0.104E-02    1.84       2.8  T
   6    -12.4216115  0.153582E-05  0.108E-02    1.84       2.7  T
   7    -12.4216146 -0.300374E-05  0.320E-03    1.84       9.0  T
   8    -12.4216147 -0.179553E-06  0.746E-04    1.84      38.7  T
   9    -12.4216147 -0.339621E-08  0.336E-04    1.84      86.0  T
     SCC iter.                  ...        0 min,  0.002 sec
     gradient                   ...        0 min,  0.001 sec
 * total energy  :   -12.1641842 Eh     change       -0.5839772E-05 Eh
   gradient norm :     0.0018121 Eh/α   predicted    -0.6450050E-05 (  10.45%)
   displ. norm   :     0.0338962 α      lambda       -0.5531147E-05
   maximum displ.:     0.0187506 α      in ANC's #7, #10, #9, ...

........................................................................
.............................. CYCLE   76 ..............................
........................................................................
   1    -12.4210487 -0.124210E+02  0.783E-02    1.84       0.0  T
   2    -12.4210486  0.840698E-07  0.505E-02    1.84       1.0  T
   3    -12.4210356  0.130334E-04  0.242E-02    1.84       1.2  T
   4    -12.4210485 -0.129070E-04  0.502E-03    1.84       5.7  T
   5    -12.4210480  0.428989E-06  0.571E-03    1.84       5.1  T
   6    -12.4210486 -0.599970E-06  0.244E-03    1.84      11.8  T
   7    -12.4210488 -0.141713E-06  0.696E-04    1.84      41.5  T
   8    -12.4210488 -0.669117E-08  0.156E-04    1.84     185.6  T
     SCC iter.                  ...        0 min,  0.001 sec
     gradient                   ...        0 min,  0.000 sec
 * total energy  :   -12.1641886 Eh     change       -0.4420801E-05 Eh
   gradient norm :     0.0008689 Eh/α   predicted    -0.2765650E-05 ( -37.44%)
   displ. norm   :     0.0222092 α      lambda       -0.2715341E-05
   maximum displ.:     0.0111941 α      in ANC's #1, #7, #11, ...

   *** GEOMETRY OPTIMIZATION CONVERGED AFTER 76 ITERATIONS ***

------------------------------------------------------------------------
 total energy gain   :        -0.5625353 Eh     -352.9962 kcal/mol
 total RMSD          :         2.2201428 a0        1.1748 Å
 total power (kW/mol):       -19.4333700 (step)-5996.3189 (real)
------------------------------------------------------------------------

 ANCopt (total)                0 d,  0 h,  0 min,  0.246 sec
 optimizer setup                ...        0 min,  0.000 sec (  0.011%)
 model hessian                  ...        0 min,  0.001 sec (  0.372%)
 ANC generation                 ...        0 min,  0.000 sec (  0.192%)
 coordinate transformation      ...        0 min,  0.000 sec (  0.093%)
 single point calculation       ...        0 min,  0.237 sec ( 96.407%)
 optimization log               ...        0 min,  0.002 sec (  0.950%)
 hessian update                 ...        0 min,  0.002 sec (  0.771%)
 rational function              ...        0 min,  0.002 sec (  0.665%)

================
 final structure:
================
12
 xtb: 6.5.1 (conda-forge)
Be           0.39200495688069        0.64445155071390        0.50083014793481
B            1.64894968878861       -0.47589850222311        0.77887518674670
B            0.46404475664686        1.04639595998178        2.18310044975372
C            1.57583158058679       -0.03810943289511        2.09904572291963
C            1.33366136640861        0.54935631281125        3.38391264595222
C            1.58175794986298        0.66067584468849        4.63874843465184
H            2.65319388816374       -0.20332589529870        5.22000292597411
H            3.31227151763062       -0.79877519991835        5.34048899849925
H            0.64811096869788        1.78763674354547        5.47929262744107
H            0.10925494217000        2.38202224501747        5.80439641247347
H            0.01084089869935        0.29953516535758        7.58468495514469
H           -0.17792251453406       -0.15724979178432        8.18612149249200

 Bond Distances (Angstroems)
 ---------------------------
Be1-B2=1.7066        Be1-B3=1.7311        Be1-C4=2.1028        B2-Be1=1.7066        B2-C4=1.3928         B3-Be1=1.7311        
B3-C4=1.5554         B3-C5=1.5637         C4-Be1=2.1028        C4-B2=1.3928         C4-B3=1.5554         C4-C5=1.4334         
C5-B3=1.5637         C5-C4=1.4334         C5-C6=1.2840         C6-C5=1.2840         H11-H12=0.7785       H12-H11=0.7785       
 H  H  Rav=0.7785 sigma=0.0000  Rmin=0.7785  Rmax=0.7785     1
 B  Be Rav=1.7188 sigma=0.0123  Rmin=1.7066  Rmax=1.7311     2
 C  Be Rav=2.1028 sigma=0.0000  Rmin=2.1028  Rmax=2.1028     1
 C  B  Rav=1.5040 sigma=0.0787  Rmin=1.3928  Rmax=1.5637     3
 C  C  Rav=1.3587 sigma=0.0747  Rmin=1.2840  Rmax=1.4334     2

 selected bond angles (degree)
 --------------------
B3-Be1-B2= 87.91               C4-Be1-B2= 41.27               C4-Be1-B3= 46.63               C4-B2-Be1= 84.80               
C4-B3-Be1= 79.36               C5-B3-Be1=134.07               C5-B3-C4= 54.72                B2-C4-Be1= 53.93               
B3-C4-Be1= 54.01               B3-C4-B2=107.93                C5-C4-Be1=116.95               C5-C4-B2=170.87                
C5-C4-B3= 62.94                C4-C5-B3= 62.35                C6-C5-B3=146.14                C6-C5-C4=151.51                

 selected dihedral angles (degree)
 ---------------------------------
C4-B2-Be1-B3=  0.04           C4-B3-Be1-B2=359.97           C5-B3-Be1-B2=359.85           C5-B3-Be1-C4=359.89           
B2-C4-Be1-B3=180.05           B3-C4-Be1-B2=179.95           C5-C4-Be1-B2=180.05           C5-C4-Be1-B3=  0.10           
B3-C4-B2-Be1=359.96           C5-C4-B2-Be1=  0.28           Be1-C4-B3-C5=179.90           B2-C4-B3-Be1=  0.04           
B2-C4-B3-C5=179.94            C5-C4-B3-Be1=180.10           C4-C5-B3-Be1=  0.14           C6-C5-B3-Be1=180.13           
C6-C5-B3-C4=179.99            B3-C5-C4-Be1=359.91           B3-C5-C4-B2=359.65            C6-C5-C4-Be1=179.92           
C6-C5-C4-B2=179.66            C6-C5-C4-B3=180.01            

 CMA Distance (Angstroems)
 ---------------------------
R(CMA):  2.6610
           -------------------------------------------------
          |                Final Singlepoint                |
           -------------------------------------------------

          ...................................................
          :                      SETUP                      :
          :.................................................:
          :  # basis functions                  30          :
          :  # atomic orbitals                  30          :
          :  # shells                           18          :
          :  # electrons                        26          :
          :  max. iterations                   250          :
          :  Hamiltonian                  GFN2-xTB          :
          :  restarted?                      false          :
          :  GBSA solvation                  false          :
          :  PC potential                    false          :
          :  electronic temp.          300.0000000     K    :
          :  accuracy                    1.0000000          :
          :  -> integral cutoff          0.2500000E+02      :
          :  -> integral neglect         0.1000000E-07      :
          :  -> SCF convergence          0.1000000E-05 Eh   :
          :  -> wf. convergence          0.1000000E-03 e    :
          :  Broyden damping             0.4000000          :
          ...................................................

 iter      E             dE          RMSdq      gap      omega  full diag
   1    -12.4210488 -0.124210E+02  0.135E-04    1.84       0.0  T
   2    -12.4210488  0.576302E-09  0.189E-04    1.84     152.9  T
   3    -12.4210488 -0.597213E-09  0.899E-05    1.84     321.2  T

   *** convergence criteria satisfied after 3 iterations ***

         #    Occupation            Energy/Eh            Energy/eV
      -------------------------------------------------------------
         1        2.0000           -0.5734496             -15.6044
       ...           ...                  ...                  ...
         7        2.0000           -0.4202101             -11.4345
         8        2.0000           -0.4063915             -11.0585
         9        2.0000           -0.3648654              -9.9285
        10        2.0000           -0.3467420              -9.4353
        11        2.0000           -0.3346553              -9.1064
        12        2.0000           -0.3240892              -8.8189
        13        2.0000           -0.3116037              -8.4792 (HOMO)
        14                         -0.2438908              -6.6366 (LUMO)
        15                         -0.2271063              -6.1799
        16                         -0.2064233              -5.6171
        17                         -0.1928869              -5.2487
        18                         -0.1629041              -4.4328
       ...                                ...                  ...
        30                          1.4085430              38.3284
      -------------------------------------------------------------
                  HL-Gap            0.0677128 Eh            1.8426 eV
             Fermi-level           -0.2777472 Eh           -7.5579 eV

 SCC (total)                   0 d,  0 h,  0 min,  0.001 sec
 SCC setup                      ...        0 min,  0.000 sec (  1.248%)
 Dispersion                     ...        0 min,  0.000 sec (  4.641%)
 classical contributions        ...        0 min,  0.000 sec (  3.833%)
 integral evaluation            ...        0 min,  0.000 sec (  5.679%)
 iterations                     ...        0 min,  0.001 sec ( 42.018%)
 molecular gradient             ...        0 min,  0.000 sec ( 34.652%)
 printout                       ...        0 min,  0.000 sec (  6.927%)

         :::::::::::::::::::::::::::::::::::::::::::::::::::::
         ::                     SUMMARY                     ::
         :::::::::::::::::::::::::::::::::::::::::::::::::::::
         :: total energy             -12.164188571216 Eh    ::
         :: gradient norm              0.000868633750 Eh/a0 ::
         :: HOMO-LUMO gap              1.842560069588 eV    ::
         ::.................................................::
         :: SCC energy               -12.421048784989 Eh    ::
         :: -> isotropic ES           -0.019534775906 Eh    ::
         :: -> anisotropic ES          0.019748239357 Eh    ::
         :: -> anisotropic XC         -0.001450917853 Eh    ::
         :: -> dispersion             -0.006583152860 Eh    ::
         :: repulsion energy           0.256857563149 Eh    ::
         :: add. restraining           0.000000000000 Eh    ::
         :: total charge               0.000000000000 e     ::
         :::::::::::::::::::::::::::::::::::::::::::::::::::::

           -------------------------------------------------
          |                Property Printout                |
           -------------------------------------------------

    * Orbital Energies and Occupations

         #    Occupation            Energy/Eh            Energy/eV
      -------------------------------------------------------------
         1        2.0000           -0.5734496             -15.6044
         2        2.0000           -0.5445471             -14.8179
         3        2.0000           -0.4764407             -12.9646
         4        2.0000           -0.4550998             -12.3839
         5        2.0000           -0.4437470             -12.0750
         6        2.0000           -0.4347554             -11.8303
         7        2.0000           -0.4202101             -11.4345
         8        2.0000           -0.4063915             -11.0585
         9        2.0000           -0.3648654              -9.9285
        10        2.0000           -0.3467420              -9.4353
        11        2.0000           -0.3346553              -9.1064
        12        2.0000           -0.3240892              -8.8189
        13        2.0000           -0.3116037              -8.4792 (HOMO)
        14                         -0.2438908              -6.6366 (LUMO)
        15                         -0.2271063              -6.1799
        16                         -0.2064233              -5.6171
        17                         -0.1928869              -5.2487
        18                         -0.1629041              -4.4328
        19                         -0.0714176              -1.9434
        20                         -0.0283113              -0.7704
        21                          0.0168635               0.4589
        22                          0.1374207               3.7394
        23                          0.1541518               4.1947
        24                          0.2002189               5.4482
       ...                                ...                  ...
        30                          1.4085430              38.3284
      -------------------------------------------------------------
                  HL-Gap            0.0677128 Eh            1.8426 eV
             Fermi-level           -0.2777472 Eh           -7.5579 eV

     #   Z          covCN         q      C6AA      α(0)
     1   4 Be       2.460     0.385    14.828     8.890
     2   5 B        1.859     0.015    43.946    13.961
     3   5 B        2.753     0.076    20.245     7.530
     4   6 C        3.431    -0.201    27.895     8.054
     5   6 C        2.861    -0.047    29.168     8.853
     6   6 C        1.292    -0.206    43.877    11.198
     7   1 H        0.577     0.071     2.615     2.666
     8   1 H        0.291    -0.068    10.641     5.920
     9   1 H        0.455     0.045     4.154     3.555
    10   1 H        0.431    -0.067     8.408     5.106
    11   1 H        0.808     0.013     2.895     2.672
    12   1 H        0.808    -0.015     3.386     2.890

 Mol. C6AA /au·bohr⁶  :       2041.584693
 Mol. C8AA /au·bohr⁸  :      54124.432157
 Mol. α(0) /au        :         81.293670


Wiberg/Mayer (AO) data.
largest (>0.10) Wiberg bond orders for each atom

 ---------------------------------------------------------------------------
     #   Z sym  total        # sym  WBO       # sym  WBO       # sym  WBO
 ---------------------------------------------------------------------------
     1   4 Be   2.128 --     2 B    1.008     3 B    0.914     4 C    0.131
     2   5 B    3.320 --     4 C    1.744     1 Be   1.008     3 B    0.349
                             6 C    0.184
     3   5 B    3.141 --     4 C    0.924     1 Be   0.914     5 C    0.809
                             2 B    0.349
     4   6 C    3.904 --     2 B    1.744     5 C    1.010     3 B    0.924
                             1 Be   0.131
     5   6 C    3.965 --     6 C    2.052     4 C    1.010     3 B    0.809
     6   6 C    3.137 --     5 C    2.052     7 H    0.264     2 B    0.184
                             9 H    0.169     8 H    0.154
     7   1 H    0.995 --     8 H    0.726     6 C    0.264
     8   1 H    0.991 --     7 H    0.726     6 C    0.154
     9   1 H    0.998 --    10 H    0.824     6 C    0.169
    10   1 H    0.988 --     9 H    0.824
    11   1 H    1.000 --    12 H    0.997
    12   1 H    1.000 --    11 H    0.997
 ---------------------------------------------------------------------------

Topologies differ in total number of bonds
Writing topology from bond orders to xtbtopo.mol

molecular dipole:
                 x           y           z       tot (Debye)
 q only:       -0.957       0.249      -2.510
   full:       -0.778       0.062      -2.563       6.810
molecular quadrupole (traceless):
                xx          xy          yy          xz          yz          zz
 q only:        7.665       0.316      13.403     -12.275      -3.431     -21.068
  q+dip:        9.266      -2.030      12.920     -10.270      -6.156     -22.186
   full:       11.296       1.362      14.036      -9.414      -8.786     -25.332

           -------------------------------------------------
          |                Geometry Summary                 |
           -------------------------------------------------

      molecular mass/u    :       72.7140914
   center of mass at/Å    :        1.1954699       0.4041495       2.6957418
  moments of inertia/u·Å² :        0.5121023E+02   0.2366734E+03   0.2733463E+03
Note: The following floating-point exceptions are signalling: IEEE_UNDERFLOW_FLAG
normal termination of xtb
rotational constants/cm⁻¹ :        0.3291848E+00   0.7122740E-01   0.6167135E-01

 * 7 selected distances

     #   Z          #   Z                                           value/Å
     1   4 Be       2   5 B                                       1.7065767
     1   4 Be       3   5 B                                       1.7311219 (max)
     2   5 B        4   6 C                                       1.3927872
     3   5 B        4   6 C                                       1.5554059
     4   6 C        5   6 C                                       1.4334036
     5   6 C        6   6 C                                       1.2839615
    11   1 H       12   1 H                                       0.7784665 (min)

 * 4 distinct bonds (by element types)

   Z      Z             #   av. dist./Å        max./Å        min./Å
   1 H    1 H           1     0.7784665     0.7784665     0.7784665
   4 Be   5 B           2     1.7188493     1.7311219     1.7065767
   5 B    6 C           2     1.4740965     1.5554059     1.3927872
   6 C    6 C           2     1.3586825     1.4334036     1.2839615


optimized geometry written to: xtbopt.xyz


           -------------------------------------------------
          | TOTAL ENERGY              -12.164188571216 Eh   |
          | GRADIENT NORM               0.000868633750 Eh/α |
          | HOMO-LUMO GAP               1.842560069588 eV   |
           -------------------------------------------------
########################################################################
[WARNING] Runtime exception occurred
-3- restart_readRestart: Dimension missmatch in restart file.
-2- restart_readRestart: Multiplicity missmatch in restart file.
-1- restart_readRestart: Number of electron missmatch in restart file.
########################################################################

------------------------------------------------------------------------
 * finished run on 2025/06/07 at 03:27:42.121     
------------------------------------------------------------------------
 total:
 * wall-time:     0 d,  0 h,  0 min,  0.282 sec
 *  cpu-time:     0 d,  0 h,  0 min,  4.013 sec
 * ratio c/w:    14.220 speedup
 SCF:
 * wall-time:     0 d,  0 h,  0 min,  0.019 sec
 *  cpu-time:     0 d,  0 h,  0 min,  0.248 sec
 * ratio c/w:    13.215 speedup
 ANC optimizer:
 * wall-time:     0 d,  0 h,  0 min,  0.248 sec
 *  cpu-time:     0 d,  0 h,  0 min,  3.623 sec
 * ratio c/w:    14.598 speedup

