      -----------------------------------------------------------      
     |                   =====================                   |     
     |                           x T B                           |     
     |                   =====================                   |     
     |                         S. Grimme                         |     
     |          Mulliken Center for Theoretical Chemistry        |     
     |                    University of Bonn                     |     
      -----------------------------------------------------------      

   * xtb version 6.5.1 (conda-forge) compiled by 'runner@Mac-1657629245115.local' on 2022-07-12

   xtb is free software: you can redistribute it and/or modify it under
   the terms of the GNU Lesser General Public License as published by
   the Free Software Foundation, either version 3 of the License, or
   (at your option) any later version.
   
   xtb is distributed in the hope that it will be useful,
   but WITHOUT ANY WARRANTY; without even the implied warranty of
   MERCHANTABILITY or FITNESS FOR A PARTICULAR PURPOSE.  See the
   GNU Lesser General Public License for more details.
   
   Cite this work as:
   * C. Bannwarth, E. Caldeweyher, S. Ehlert, A. Hansen, P. Pracht,
     J. Seibert, S. Spicher, S. Grimme, WIREs Comput. Mol. Sci., 2020, 11,
     e01493. DOI: 10.1002/wcms.1493
   
   for GFN2-xTB:
   * C. Bannwarth, S. Ehlert and S. Grimme., J. Chem. Theory Comput., 2019,
     15, 1652-1671. DOI: 10.1021/acs.jctc.8b01176
   for GFN1-xTB:
   * S. Grimme, C. Bannwarth, P. Shushkov, J. Chem. Theory Comput., 2017,
     13, 1989-2009. DOI: 10.1021/acs.jctc.7b00118
   for GFN0-xTB:
   * P. Pracht, E. Caldeweyher, S. Ehlert, S. Grimme, ChemRxiv, 2019, preprint.
     DOI: 10.26434/chemrxiv.8326202.v1
   for GFN-FF:
   * S. Spicher and S. Grimme, Angew. Chem. Int. Ed., 2020, 59, 15665-15673.
     DOI: 10.1002/anie.202004239
   
   for ALPB and GBSA implicit solvation:
   * S. Ehlert, M. Stahn, S. Spicher, S. Grimme, J. Chem. Theory Comput.,
     2021, 17, 4250-4261. DOI: 10.1021/acs.jctc.1c00471
   
   for DFT-D4:
   * E. Caldeweyher, C. Bannwarth and S. Grimme, J. Chem. Phys., 2017,
     147, 034112. DOI: 10.1063/1.4993215
   * E. Caldeweyher, S. Ehlert, A. Hansen, H. Neugebauer, S. Spicher,
     C. Bannwarth and S. Grimme, J. Chem. Phys., 2019, 150, 154122.
     DOI: 10.1063/1.5090222
   * E. Caldeweyher, J.-M. Mewes, S. Ehlert and S. Grimme, Phys. Chem. Chem. Phys.
     2020, 22, 8499-8512. DOI: 10.1039/D0CP00502A
   
   for sTDA-xTB:
   * S. Grimme and C. Bannwarth, J. Chem. Phys., 2016, 145, 054103.
     DOI: 10.1063/1.4959605
   
   in the mass-spec context:
   * V. Asgeirsson, C. Bauer and S. Grimme, Chem. Sci., 2017, 8, 4879.
     DOI: 10.1039/c7sc00601b
   * J. Koopman and S. Grimme, ACS Omega 2019, 4, 12, 15120-15133.
     DOI: 10.1021/acsomega.9b02011
   
   for metadynamics refer to:
   * S. Grimme, J. Chem. Theory Comput., 2019, 155, 2847-2862
     DOI: 10.1021/acs.jctc.9b00143
   
   for SPH calculations refer to:
   * S. Spicher and S. Grimme, J. Chem. Theory Comput., 2021, 17, 1701-1714
     DOI: 10.1021/acs.jctc.0c01306
   
   with help from (in alphabetical order)
   P. Atkinson, C. Bannwarth, F. Bohle, G. Brandenburg, E. Caldeweyher
   M. Checinski, S. Dohm, S. Ehlert, S. Ehrlich, I. Gerasimov, C. Hölzer
   A. Katbashev, J. Koopman, C. Lavigne, S. Lehtola, F. März, M. Müller,
   F. Musil, H. Neugebauer, J. Pisarek, C. Plett, P. Pracht, F. Pultar,
   J. Seibert, P. Shushkov, S. Spicher, M. Stahn, M. Steiner, T. Strunk,
   J. Stückrath, T. Rose, and J. Unsleber
   
 * started run on 2025/06/07 at 03:27:42.771     

           -------------------------------------------------
          |                Calculation Setup                |
           -------------------------------------------------

          program call               : xtb B2BeCH3.xyz --gfn 2 --opt
          coordinate file            : B2BeCH3.xyz
          omp threads                :                    16

   ID    Z sym.   atoms
    1    4 Be     1
    2    5 B      2, 3
    3    6 C      4
    4    1 H      5-7

molecular fragmentation (1/2 indicates fragments):
1112222
# atoms in fragment 1/2:     3     4
 fragment masses (1/2) :       30.63       15.03
CMA distance (Bohr)    :   4.561
constraining FC (au)   :  0.0500

           -------------------------------------------------
          |                 G F N 2 - x T B                 |
           -------------------------------------------------

        Reference                      10.1021/acs.jctc.8b01176
      * Hamiltonian:
        H0-scaling (s, p, d)           1.850000    2.230000    2.230000
        zeta-weighting                 0.500000
      * Dispersion:
        s8                             2.700000
        a1                             0.520000
        a2                             5.000000
        s9                             5.000000
      * Repulsion:
        kExp                           1.500000    1.000000
        rExp                           1.000000
      * Coulomb:
        alpha                          2.000000
        third order                    shell-resolved
        anisotropic                    true
        a3                             3.000000
        a5                             4.000000
        cn-shift                       1.200000
        cn-exp                         4.000000
        max-rad                        5.000000


          ...................................................
          :                      SETUP                      :
          :.................................................:
          :  # basis functions                  19          :
          :  # atomic orbitals                  19          :
          :  # shells                           11          :
          :  # electrons                        15          :
          :  max. iterations                   250          :
          :  Hamiltonian                  GFN2-xTB          :
          :  restarted?                      false          :
          :  GBSA solvation                  false          :
          :  PC potential                    false          :
          :  electronic temp.          300.0000000     K    :
          :  accuracy                    1.0000000          :
          :  -> integral cutoff          0.2500000E+02      :
          :  -> integral neglect         0.1000000E-07      :
          :  -> SCF convergence          0.1000000E-05 Eh   :
          :  -> wf. convergence          0.1000000E-03 e    :
          :  Broyden damping             0.4000000          :
          ...................................................

 iter      E             dE          RMSdq      gap      omega  full diag
   1     13.9878955  0.139879E+02  0.260E+01    2.52       0.0  T
   2     -1.8417439 -0.158296E+02  0.267E+01    0.88       1.0  T
   3     -1.4886608  0.353083E+00  0.211E+01    1.54       1.0  T
   4     -0.5863537  0.902307E+00  0.205E+01    0.47       1.0  T
   5     -1.2757994 -0.689446E+00  0.185E+01    0.88       1.0  T
   6     -4.8746216 -0.359882E+01  0.116E+01    0.73       1.0  T
   7     -5.4178007 -0.543179E+00  0.119E+01    0.74       1.0  T
   8     -5.1884021  0.229399E+00  0.111E+01    0.76       1.0  T
   9     -5.4864979 -0.298096E+00  0.946E+00    0.73       1.0  T
  10      8.7399922  0.142265E+02  0.247E+01    1.31       1.0  T
  11     -5.2368650 -0.139769E+02  0.558E+00    0.77       1.0  T
  12     -5.9724289 -0.735564E+00  0.416E+00    0.70       1.0  T
  13     -6.0474737 -0.750448E-01  0.454E+00    0.65       1.0  T
  14     -6.0778126 -0.303389E-01  0.502E+00    0.61       1.0  T
  15     -6.0285231  0.492895E-01  0.656E+00    0.52       1.0  T
  16     -5.8683170  0.160206E+00  0.815E+00    0.44       1.0  T
  17     -6.0797411 -0.211424E+00  0.489E+00    0.62       1.0  T
  18     -6.0659327  0.138084E-01  0.556E+00    0.61       1.0  T
  19     -6.0629435  0.298924E-02  0.555E+00    0.62       1.0  T
  20     -6.0586895  0.425393E-02  0.757E+00    0.53       1.0  T
  21     -6.0441520  0.145375E-01  0.553E+00    0.64       1.0  T
  22     -6.0357851  0.836694E-02  0.474E+00    0.67       1.0  T
  23     -6.0661986 -0.304135E-01  0.545E+00    0.56       1.0  T
  24     -6.0534818  0.127168E-01  0.517E+00    0.56       1.0  T
  25     -6.0361002  0.173816E-01  0.517E+00    0.55       1.0  T
  26     -6.0329222  0.317805E-02  0.518E+00    0.55       1.0  T
  27     -6.0399400 -0.701787E-02  0.461E+00    0.56       1.0  T
  28     -6.0337878  0.615224E-02  0.282E+00    0.61       1.0  T
  29     -6.0155291  0.182587E-01  0.300E+00    0.60       1.0  T
  30     -6.0448276 -0.292985E-01  0.240E+00    0.63       1.0  T
  31     -6.0620371 -0.172094E-01  0.185E+00    0.65       1.0  T
  32     -6.0654502 -0.341316E-02  0.174E+00    0.66       1.0  T
  33     -6.0744156 -0.896534E-02  0.154E+00    0.67       1.0  T
  34     -6.0888259 -0.144104E-01  0.109E+00    0.70       1.0  T
  35     -6.0907359 -0.190999E-02  0.966E-01    0.70       1.0  T
  36     -6.0925989 -0.186296E-02  0.707E-01    0.76       1.0  T
  37     -6.0931151 -0.516281E-03  0.574E-01    0.76       1.0  T
  38     -6.0952702 -0.215506E-02  0.279E-01    0.75       1.0  T
  39     -6.0947970  0.473175E-03  0.327E-01    0.75       1.0  T
  40     -6.0956480 -0.850983E-03  0.214E-01    0.75       1.0  T
  41     -6.0956980 -0.500161E-04  0.216E-01    0.75       1.0  T
  42     -6.0957172 -0.192121E-04  0.203E-01    0.75       1.0  T
  43     -6.0957784 -0.611926E-04  0.163E-01    0.75       1.0  T
  44     -6.0958086 -0.301905E-04  0.137E-01    0.75       1.0  T
  45     -6.0958917 -0.831244E-04  0.869E-02    0.75       1.0  T
  46     -6.0959059 -0.141654E-04  0.486E-02    0.75       1.0  T
  47     -6.0958940  0.119518E-04  0.424E-02    0.75       1.0  T
  48     -6.0959099 -0.159032E-04  0.238E-02    0.75       1.6  T
  49     -6.0959137 -0.388518E-05  0.195E-02    0.76       1.9  T
  50     -6.0959122  0.158149E-05  0.170E-02    0.76       2.2  T
  51     -6.0959126 -0.453818E-06  0.975E-03    0.76       3.9  T
  52     -6.0959136 -0.100918E-05  0.563E-03    0.75       6.7  T
  53     -6.0959141 -0.429056E-06  0.176E-03    0.75      21.4  T
  54     -6.0959141 -0.522510E-07  0.106E-03    0.75      35.7  T
  55     -6.0959141 -0.357497E-08  0.689E-04    0.75      54.9  T
  56     -6.0959141 -0.129835E-09  0.344E-04    0.75     109.7  T

   *** convergence criteria satisfied after 56 iterations ***

         #    Occupation            Energy/Eh            Energy/eV
      -------------------------------------------------------------
         1        2.0000           -0.5658936             -15.3987
         2        2.0000           -0.4074981             -11.0886
         3        2.0000           -0.2965820              -8.0704
         4        2.0000           -0.2766547              -7.5282
         5        2.0000           -0.2274573              -6.1894
         6        2.0000           -0.2186752              -5.9505
         7        1.9866           -0.1776620              -4.8344
         8        1.0134           -0.1694926              -4.6121 (HOMO)
         9        0.0000           -0.1417549              -3.8573 (LUMO)
        10                         -0.1245352              -3.3888
        11                         -0.1171703              -3.1884
        12                         -0.0938172              -2.5529
        13                         -0.0287318              -0.7818
       ...                                ...                  ...
        19                          0.3801795              10.3452
      -------------------------------------------------------------
                  HL-Gap            0.0277377 Eh            0.7548 eV
             Fermi-level           -0.1646004 Eh           -4.4790 eV

 SCC (total)                   0 d,  0 h,  0 min,  0.008 sec
 SCC setup                      ...        0 min,  0.000 sec (  0.754%)
 Dispersion                     ...        0 min,  0.000 sec (  2.662%)
 classical contributions        ...        0 min,  0.000 sec (  0.791%)
 integral evaluation            ...        0 min,  0.000 sec (  1.988%)
 iterations                     ...        0 min,  0.007 sec ( 87.185%)
 molecular gradient             ...        0 min,  0.001 sec (  6.158%)
 printout                       ...        0 min,  0.000 sec (  0.334%)

         :::::::::::::::::::::::::::::::::::::::::::::::::::::
         ::                     SUMMARY                     ::
         :::::::::::::::::::::::::::::::::::::::::::::::::::::
         :: total energy              -6.051155797621 Eh    ::
         :: gradient norm              0.280658423440 Eh/a0 ::
         :: HOMO-LUMO gap              0.754781255364 eV    ::
         ::.................................................::
         :: SCC energy                -6.095914109388 Eh    ::
         :: -> isotropic ES            0.015093264745 Eh    ::
         :: -> anisotropic ES          0.002655877821 Eh    ::
         :: -> anisotropic XC         -0.011695047093 Eh    ::
         :: -> dispersion             -0.003333751694 Eh    ::
         :: repulsion energy           0.044759004567 Eh    ::
         :: add. restraining           0.000000000000 Eh    ::
         :: total charge               0.000000000084 e     ::
         :::::::::::::::::::::::::::::::::::::::::::::::::::::

      ----------------------------------------------------------- 
     |                   =====================                   |
     |                        A N C O P T                        |
     |                   =====================                   |
     |               Approximate Normal Coordinate               |
     |                Rational Function Optimizer                |
      ----------------------------------------------------------- 

          ...................................................
          :                      SETUP                      :
          :.................................................:
          :   optimization level            normal          :
          :   max. optcycles                   200          :
          :   ANC micro-cycles                  20          :
          :   degrees of freedom                15          :
          :.................................................:
          :   RF solver                   davidson          :
          :   write xtbopt.log                true          :
          :   linear?                        false          :
          :   energy convergence         0.5000000E-05 Eh   :
          :   grad. convergence          0.1000000E-02 Eh/α :
          :   maximium RF displ.         1.0000000          :
          :   Hlow (freq-cutoff)         0.1000000E-01      :
          :   Hmax (freq-cutoff)         5.0000000          :
          :   S6 in model hess.         20.0000000          :
          ...................................................

generating ANC from model Hessian ...
Using Lindh-Hessian (1995)
 Shifting diagonal of input Hessian by    9.5940665511759990E-003
 Lowest  eigenvalues of input Hessian
    0.000000    0.000000    0.000000    0.000000    0.000000    0.000000
    0.010000    0.011417    0.017972    0.019848    0.035419    0.055828
    0.063719    0.124124    0.148682    0.179361    0.186716    0.250289
 Highest eigenvalues
    0.179361    0.186716    0.250289    0.297972    0.328940    0.598865


........................................................................
.............................. CYCLE    1 ..............................
........................................................................
   1     -6.0959141 -0.609591E+01  0.162E-04    0.75       0.0  T
   2     -6.0959141  0.844109E-09  0.228E-04    0.75     165.5  T
   3     -6.0959141  0.730277E-08  0.896E-04    0.75      42.2  T
     SCC iter.                  ...        0 min,  0.001 sec
     gradient                   ...        0 min,  0.001 sec
 * total energy  :    -6.0511558 Eh     change        0.7605989E-08 Eh
   gradient norm :     0.2796609 Eh/α   predicted     0.0000000E+00 (-100.00%)
   displ. norm   :     0.7483219 α      lambda       -0.1884209E+00
   maximum displ.:     0.5104353 α      in ANC's #6, #15, #10, ...

........................................................................
.............................. CYCLE    2 ..............................
........................................................................
   1     -6.0876971 -0.608770E+01  0.609E+00    0.26       0.0  T
   2     -3.8243652  0.226333E+01  0.120E+01    0.44       1.0  T
   3     -5.3264783 -0.150211E+01  0.900E+00    1.16       1.0  T
   4     -5.9140584 -0.587580E+00  0.475E+00    0.58       1.0  T
   5     -5.9801230 -0.660646E-01  0.438E+00    0.77       1.0  T
   6     -6.1937278 -0.213605E+00  0.221E+00    0.51       1.0  T
   7     -6.1460984  0.476294E-01  0.243E+00    0.48       1.0  T
   8     -6.1444733  0.162507E-02  0.250E+00    0.67       1.0  T
   9     -6.2226133 -0.781400E-01  0.972E-01    0.54       1.0  T
  10     -6.2207681  0.184513E-02  0.829E-01    0.56       1.0  T
  11     -6.2207608  0.734698E-05  0.699E-01    0.56       1.0  T
  12     -6.2264678 -0.570696E-02  0.183E-01    0.54       1.0  T
  13     -6.2264795 -0.116915E-04  0.150E-01    0.54       1.0  T
  14     -6.2264605  0.189109E-04  0.842E-02    0.54       1.0  T
  15     -6.2264888 -0.282071E-04  0.696E-02    0.54       1.0  T
  16     -6.2265050 -0.162684E-04  0.332E-02    0.54       1.1  T
  17     -6.2265051 -0.978462E-07  0.722E-03    0.54       5.2  T
  18     -6.2265057 -0.614729E-06  0.381E-03    0.54       9.9  T
  19     -6.2265059 -0.199851E-06  0.364E-04    0.54     103.7  T
  20     -6.2265059  0.144129E-08  0.486E-04    0.54      77.8  T
     SCC iter.                  ...        0 min,  0.003 sec
     gradient                   ...        0 min,  0.001 sec
 * total energy  :    -6.1982793 Eh     change       -0.1471235E+00 Eh
   gradient norm :     0.1723667 Eh/α   predicted    -0.1469669E+00 (  -0.11%)
   displ. norm   :     0.7808076 α      lambda       -0.1295081E+00
   maximum displ.:     0.3955439 α      in ANC's #10, #9, #6, ...

........................................................................
.............................. CYCLE    3 ..............................
........................................................................
   1     -6.2750637 -0.627506E+01  0.410E+00    0.38       0.0  T
   2     -4.9242261  0.135084E+01  0.937E+00    0.34       1.0  T
   3     -5.9154875 -0.991261E+00  0.617E+00    1.14       1.0  T
   4     -6.2727416 -0.357254E+00  0.290E+00    0.58       1.0  T
   5     -6.2967448 -0.240031E-01  0.226E+00    0.56       1.0  T
   6     -6.2959614  0.783355E-03  0.215E+00    0.34       1.0  T
   7     -6.3283083 -0.323469E-01  0.144E+00    0.44       1.0  T
   8     -6.3286310 -0.322753E-03  0.135E+00    0.48       1.0  T
   9     -6.3328638 -0.423279E-02  0.121E+00    0.45       1.0  T
  10     -6.3483767 -0.155128E-01  0.770E-01    0.40       1.0  T
  11     -6.3488705 -0.493870E-03  0.836E-01    0.39       1.0  T
  12     -6.3502225 -0.135196E-02  0.677E-01    0.38       1.0  T
  13     -6.3506566 -0.434074E-03  0.574E-01    0.38       1.0  T
  14     -6.3521794 -0.152278E-02  0.152E-01    0.37       1.0  T
  15     -6.3522673 -0.879165E-04  0.208E-02    0.36       1.8  T
  16     -6.3522676 -0.306831E-06  0.111E-02    0.36       3.4  T
  17     -6.3522681 -0.554819E-06  0.191E-02    0.36       2.0  T
  18     -6.3522683 -0.179198E-06  0.991E-03    0.36       3.8  T
  19     -6.3522683  0.656620E-08  0.445E-03    0.36       8.5  T
  20     -6.3522683 -0.324298E-07  0.123E-03    0.36      30.8  T
  21     -6.3522683  0.554881E-10  0.374E-04    0.36     101.1  T
  22     -6.3522683 -0.115845E-08  0.131E-04    0.36     288.7  T
     SCC iter.                  ...        0 min,  0.004 sec
     gradient                   ...        0 min,  0.001 sec
 * total energy  :    -6.2880786 Eh     change       -0.8979933E-01 Eh
   gradient norm :     0.0844878 Eh/α   predicted    -0.1042320E+00 (  16.07%)
   displ. norm   :     0.7065620 α      lambda       -0.5372638E-01
   maximum displ.:     0.5175921 α      in ANC's #5, #9, #6, ...

........................................................................
.............................. CYCLE    4 ..............................
........................................................................
   1     -6.4048767 -0.640488E+01  0.410E+00    0.60       0.0  T
   2     -6.3920264  0.128503E-01  0.305E+00    0.67       1.0  T
   3     -6.1790826  0.212944E+00  0.412E+00    0.71       1.0  T
   4     -6.3403450 -0.161262E+00  0.216E+00    0.41       1.0  T
   5     -6.3716425 -0.312975E-01  0.155E+00    0.69       1.0  T
   6     -6.4061112 -0.344687E-01  0.501E-01    0.69       1.0  T
   7     -6.4086420 -0.253082E-02  0.331E-01    0.59       1.0  T
   8     -6.4080996  0.542428E-03  0.323E-01    0.60       1.0  T
   9     -6.4086491 -0.549482E-03  0.110E-01    0.63       1.0  T
  10     -6.4089033 -0.254234E-03  0.275E-02    0.62       1.4  T
  11     -6.4089046 -0.134801E-05  0.138E-02    0.62       2.7  T
  12     -6.4089047 -0.232800E-07  0.632E-03    0.62       6.0  T
  13     -6.4089047 -0.525816E-07  0.397E-03    0.62       9.5  T
  14     -6.4089047 -0.327499E-08  0.145E-03    0.62      26.0  T
  15     -6.4089047 -0.551142E-08  0.428E-04    0.62      88.4  T
  16     -6.4089047 -0.768825E-10  0.441E-05    0.62     856.8  T
     SCC iter.                  ...        0 min,  0.002 sec
     gradient                   ...        0 min,  0.001 sec
 * total energy  :    -6.3405187 Eh     change       -0.5244002E-01 Eh
   gradient norm :     0.1282371 Eh/α   predicted    -0.4027410E-01 ( -23.20%)
   displ. norm   :     0.9303292 α      lambda       -0.8035374E-01
   maximum displ.:     0.5790753 α      in ANC's #5, #9, #6, ...

........................................................................
.............................. CYCLE    5 ..............................
........................................................................
   1     -6.4862844 -0.648628E+01  0.363E+00    1.06       0.0  T
   2     -6.4835946  0.268983E-02  0.243E+00    1.19       1.0  T
   3     -6.3843040  0.992906E-01  0.296E+00    0.97       1.0  T
   4     -6.4828040 -0.985000E-01  0.836E-01    1.00       1.0  T
   5     -6.4848181 -0.201406E-02  0.578E-01    1.23       1.0  T
   6     -6.4860664 -0.124834E-02  0.423E-01    1.12       1.0  T
   7     -6.4883580 -0.229157E-02  0.128E-01    1.14       1.0  T
   8     -6.4883964 -0.383822E-04  0.368E-02    1.14       1.0  T
   9     -6.4884050 -0.868705E-05  0.784E-03    1.14       4.8  T
  10     -6.4884052 -0.179348E-06  0.234E-03    1.14      16.2  T
  11     -6.4884052 -0.199897E-07  0.717E-04    1.14      52.7  T
  12     -6.4884052 -0.143209E-08  0.131E-04    1.14     288.1  T
     SCC iter.                  ...        0 min,  0.002 sec
     gradient                   ...        0 min,  0.001 sec
 * total energy  :    -6.3972301 Eh     change       -0.5671145E-01 Eh
   gradient norm :     0.1398493 Eh/α   predicted    -0.7495047E-01 (  32.16%)
   displ. norm   :     0.7454630 α      lambda       -0.7593747E-01
   maximum displ.:     0.3959463 α      in ANC's #11, #9, #12, ...

........................................................................
.............................. CYCLE    6 ..............................
........................................................................
   1     -6.5058426 -0.650584E+01  0.259E+00    1.35       0.0  T
   2     -6.4987662  0.707637E-02  0.162E+00    1.64       1.0  T
   3     -6.4511249  0.476413E-01  0.276E+00    1.05       1.0  T
   4     -6.4797410 -0.286161E-01  0.169E+00    1.52       1.0  T
   5     -6.5113792 -0.316381E-01  0.359E-01    1.54       1.0  T
   6     -6.5109200  0.459128E-03  0.386E-01    1.47       1.0  T
   7     -6.5115912 -0.671164E-03  0.345E-01    1.46       1.0  T
   8     -6.5121230 -0.531760E-03  0.152E-01    1.52       1.0  T
   9     -6.5124428 -0.319782E-03  0.286E-02    1.49       1.3  T
  10     -6.5124473 -0.456050E-05  0.832E-03    1.50       4.5  T
  11     -6.5124477 -0.358298E-06  0.225E-03    1.50      16.8  T
  12     -6.5124477 -0.918748E-08  0.119E-03    1.50      31.6  T
  13     -6.5124477 -0.124861E-07  0.240E-04    1.50     157.2  T
  14     -6.5124477 -0.209649E-09  0.342E-05    1.50    1106.1  T
     SCC iter.                  ...        0 min,  0.002 sec
     gradient                   ...        0 min,  0.001 sec
 * total energy  :    -6.4219853 Eh     change       -0.2475523E-01 Eh
   gradient norm :     0.1740764 Eh/α   predicted    -0.5906853E-01 ( 138.61%)
   displ. norm   :     0.4461533 α      lambda       -0.5591353E-01
   maximum displ.:     0.2520482 α      in ANC's #6, #8, #1, ...

........................................................................
.............................. CYCLE    7 ..............................
........................................................................
   1     -6.5594376 -0.655944E+01  0.165E+00    1.71       0.0  T
   2     -6.5583414  0.109617E-02  0.114E+00    1.60       1.0  T
   3     -6.5173483  0.409931E-01  0.203E+00    1.80       1.0  T
   4     -6.5592944 -0.419461E-01  0.395E-01    1.71       1.0  T
   5     -6.5581807  0.111371E-02  0.459E-01    1.72       1.0  T
   6     -6.5597199 -0.153918E-02  0.266E-01    1.69       1.0  T
   7     -6.5603788 -0.658944E-03  0.751E-02    1.69       1.0  T
   8     -6.5604045 -0.257041E-04  0.529E-02    1.70       1.0  T
   9     -6.5604348 -0.302592E-04  0.830E-03    1.69       4.6  T
  10     -6.5604352 -0.463311E-06  0.237E-03    1.70      16.0  T
  11     -6.5604353 -0.378160E-07  0.398E-04    1.70      95.0  T
  12     -6.5604353  0.325143E-09  0.200E-04    1.70     188.6  T
     SCC iter.                  ...        0 min,  0.002 sec
     gradient                   ...        0 min,  0.000 sec
 * total energy  :    -6.4707078 Eh     change       -0.4872243E-01 Eh
   gradient norm :     0.1133783 Eh/α   predicted    -0.3352164E-01 ( -31.20%)
   displ. norm   :     0.8681961 α      lambda       -0.9132382E-01
   maximum displ.:     0.5257754 α      in ANC's #8, #6, #12, ...

........................................................................
.............................. CYCLE    8 ..............................
........................................................................
   1     -6.6722326 -0.667223E+01  0.266E+00    1.79       0.0  T
   2     -6.6676874  0.454513E-02  0.182E+00    1.79       1.0  T
   3     -6.5573305  0.110357E+00  0.344E+00    1.73       1.0  T
   4     -6.6712172 -0.113887E+00  0.505E-01    1.78       1.0  T
   5     -6.6730896 -0.187234E-02  0.236E-01    1.79       1.0  T
   6     -6.6704254  0.266419E-02  0.469E-01    1.76       1.0  T
   7     -6.6726247 -0.219931E-02  0.233E-01    1.79       1.0  T
   8     -6.6733556 -0.730930E-03  0.191E-02    1.79       2.0  T
   9     -6.6733565 -0.862832E-06  0.765E-03    1.79       4.9  T
  10     -6.6733567 -0.228430E-06  0.276E-03    1.79      13.7  T
  11     -6.6733568 -0.779267E-07  0.990E-04    1.79      38.2  T
  12     -6.6733568 -0.519746E-08  0.390E-04    1.79      96.9  T
     SCC iter.                  ...        0 min,  0.004 sec
     gradient                   ...        0 min,  0.001 sec
 * total energy  :    -6.4984885 Eh     change       -0.2778067E-01 Eh
   gradient norm :     0.1964840 Eh/α   predicted    -0.8008024E-01 ( 188.26%)
   displ. norm   :     0.4966687 α      lambda       -0.8338312E-01
   maximum displ.:     0.3034440 α      in ANC's #4, #3, #9, ...

........................................................................
.............................. CYCLE    9 ..............................
........................................................................
   1     -6.6326241 -0.663262E+01  0.151E+00    1.82       0.0  T
   2     -6.6319782  0.645832E-03  0.102E+00    1.82       1.0  T
   3     -6.5956848  0.362934E-01  0.162E+00    1.69       1.0  T
   4     -6.6316717 -0.359868E-01  0.302E-01    1.81       1.0  T
   5     -6.6325695 -0.897818E-03  0.168E-01    1.82       1.0  T
   6     -6.6327581 -0.188599E-03  0.769E-02    1.82       1.0  T
   7     -6.6327859 -0.277838E-04  0.491E-02    1.82       1.0  T
   8     -6.6328071 -0.212555E-04  0.823E-03    1.81       4.6  T
   9     -6.6328077 -0.607684E-06  0.164E-03    1.81      23.1  T
  10     -6.6328077  0.360767E-08  0.107E-03    1.81      35.3  T
  11     -6.6328077 -0.946585E-08  0.185E-04    1.81     204.2  T
  12     -6.6328077 -0.137101E-09  0.583E-05    1.81     648.1  T
     SCC iter.                  ...        0 min,  0.002 sec
     gradient                   ...        0 min,  0.000 sec
 * total energy  :    -6.5133356 Eh     change       -0.1484717E-01 Eh
   gradient norm :     0.0982249 Eh/α   predicted    -0.5197600E-01 ( 250.07%)
   displ. norm   :     0.4352097 α      lambda       -0.1822451E-01
   maximum displ.:     0.2772165 α      in ANC's #1, #3, #11, ...

........................................................................
.............................. CYCLE   10 ..............................
........................................................................
   1     -6.6156913 -0.661569E+01  0.178E+00    1.63       0.0  T
   2     -6.6139368  0.175450E-02  0.124E+00    1.72       1.0  T
   3     -6.5448296  0.691072E-01  0.236E+00    1.15       1.0  T
   4     -6.6052340 -0.604043E-01  0.963E-01    1.71       1.0  T
   5     -6.6141989 -0.896496E-02  0.412E-01    1.73       1.0  T
   6     -6.6155829 -0.138396E-02  0.248E-01    1.71       1.0  T
   7     -6.6162340 -0.651136E-03  0.104E-01    1.71       1.0  T
   8     -6.6162191  0.149395E-04  0.559E-02    1.72       1.0  T
   9     -6.6162356 -0.165331E-04  0.154E-02    1.71       2.5  T
  10     -6.6162379 -0.231763E-05  0.409E-03    1.71       9.3  T
  11     -6.6162382 -0.238029E-06  0.105E-03    1.71      35.9  T
  12     -6.6162382  0.185150E-09  0.350E-04    1.71     108.1  T
  13     -6.6162382 -0.532403E-09  0.132E-04    1.71     285.5  T
     SCC iter.                  ...        0 min,  0.002 sec
     gradient                   ...        0 min,  0.001 sec
 * total energy  :    -6.5175467 Eh     change       -0.4211088E-02 Eh
   gradient norm :     0.0682994 Eh/α   predicted    -0.1083818E-01 ( 157.37%)
   displ. norm   :     0.3956021 α      lambda       -0.1894238E-01
   maximum displ.:     0.2633142 α      in ANC's #8, #3, #12, ...

........................................................................
.............................. CYCLE   11 ..............................
........................................................................
   1     -6.6560055 -0.665601E+01  0.130E+00    1.71       0.0  T
   2     -6.6554453  0.560238E-03  0.867E-01    1.71       1.0  T
   3     -6.6271779  0.282675E-01  0.165E+00    1.69       1.0  T
   4     -6.6560505 -0.288726E-01  0.145E-01    1.71       1.0  T
   5     -6.6561165 -0.660551E-04  0.973E-02    1.71       1.0  T
   6     -6.6558291  0.287433E-03  0.159E-01    1.71       1.0  T
   7     -6.6560308 -0.201674E-03  0.946E-02    1.71       1.0  T
   8     -6.6561410 -0.110211E-03  0.107E-02    1.71       3.5  T
   9     -6.6561424 -0.141661E-05  0.239E-03    1.71      15.8  T
  10     -6.6561424 -0.106265E-07  0.882E-04    1.71      42.8  T
  11     -6.6561424 -0.303423E-08  0.162E-04    1.71     233.6  T
     SCC iter.                  ...        0 min,  0.002 sec
     gradient                   ...        0 min,  0.001 sec
 * total energy  :    -6.5281184 Eh     change       -0.1057166E-01 Eh
   gradient norm :     0.0347405 Eh/α   predicted    -0.1095345E-01 (   3.61%)
   displ. norm   :     0.3474470 α      lambda       -0.6525863E-02
   maximum displ.:     0.2682610 α      in ANC's #1, #7, #12, ...

........................................................................
.............................. CYCLE   12 ..............................
........................................................................
   1     -6.6586501 -0.665865E+01  0.129E+00    1.80       0.0  T
   2     -6.6575347  0.111537E-02  0.916E-01    1.81       1.0  T
   3     -6.6349184  0.226163E-01  0.149E+00    1.78       1.0  T
   4     -6.6582853 -0.233669E-01  0.293E-01    1.81       1.0  T
   5     -6.6588771 -0.591785E-03  0.120E-01    1.80       1.0  T
   6     -6.6585793  0.297820E-03  0.185E-01    1.81       1.0  T
   7     -6.6587173 -0.138034E-03  0.144E-01    1.81       1.0  T
   8     -6.6589779 -0.260580E-03  0.895E-03    1.81       4.2  T
   9     -6.6589784 -0.518303E-06  0.307E-03    1.81      12.3  T
  10     -6.6589784 -0.224765E-07  0.105E-03    1.81      36.1  T
  11     -6.6589784 -0.137992E-07  0.258E-04    1.81     146.5  T
  12     -6.6589784 -0.745208E-09  0.553E-05    1.81     683.2  T
     SCC iter.                  ...        0 min,  0.002 sec
     gradient                   ...        0 min,  0.000 sec
 * total energy  :    -6.5270123 Eh     change        0.1106026E-02 Eh
   gradient norm :     0.0667853 Eh/α   predicted    -0.3656832E-02 (-430.63%)
   displ. norm   :     0.2312809 α      lambda       -0.1081084E-01
   maximum displ.:     0.1072305 α      in ANC's #5, #6, #9, ...

........................................................................
.............................. CYCLE   13 ..............................
........................................................................
   1     -6.6719396 -0.667194E+01  0.855E-01    1.85       0.0  T
   2     -6.6710190  0.920611E-03  0.584E-01    1.85       1.0  T
   3     -6.6542466  0.167725E-01  0.120E+00    1.75       1.0  T
   4     -6.6713258 -0.170793E-01  0.234E-01    1.85       1.0  T
   5     -6.6719997 -0.673932E-03  0.972E-02    1.86       1.0  T
   6     -6.6719776  0.221697E-04  0.106E-01    1.85       1.0  T
   7     -6.6720882 -0.110605E-03  0.104E-02    1.85       3.6  T
   8     -6.6720888 -0.569181E-06  0.698E-03    1.85       5.4  T
   9     -6.6720889 -0.152096E-06  0.224E-03    1.85      16.9  T
  10     -6.6720889 -0.121778E-07  0.390E-04    1.85      96.9  T
  11     -6.6720889  0.359268E-11  0.119E-04    1.85     318.3  T
     SCC iter.                  ...        0 min,  0.002 sec
     gradient                   ...        0 min,  0.000 sec
 * total energy  :    -6.5313211 Eh     change       -0.4308739E-02 Eh
   gradient norm :     0.0341726 Eh/α   predicted    -0.5694564E-02 (  32.16%)
   displ. norm   :     0.3008339 α      lambda       -0.5713607E-02
   maximum displ.:     0.1781645 α      in ANC's #4, #7, #2, ...

........................................................................
.............................. CYCLE   14 ..............................
........................................................................
   1     -6.6498273 -0.664983E+01  0.112E+00    1.84       0.0  T
   2     -6.6497671  0.601664E-04  0.739E-01    1.84       1.0  T
   3     -6.6411306  0.863652E-02  0.887E-01    1.75       1.0  T
   4     -6.6488135 -0.768288E-02  0.298E-01    1.83       1.0  T
   5     -6.6499121 -0.109862E-02  0.802E-02    1.84       1.0  T
   6     -6.6498223  0.898291E-04  0.906E-02    1.84       1.0  T
   7     -6.6498929 -0.706727E-04  0.496E-02    1.84       1.0  T
   8     -6.6499198 -0.268593E-04  0.984E-03    1.84       3.8  T
   9     -6.6499207 -0.910656E-06  0.261E-03    1.84      14.5  T
  10     -6.6499208 -0.589888E-07  0.547E-04    1.84      69.1  T
  11     -6.6499208  0.138534E-09  0.185E-04    1.84     204.6  T
     SCC iter.                  ...        0 min,  0.001 sec
     gradient                   ...        0 min,  0.000 sec
 * total energy  :    -6.5321971 Eh     change       -0.8759973E-03 Eh
   gradient norm :     0.0350107 Eh/α   predicted    -0.3115348E-02 ( 255.63%)
   displ. norm   :     0.2465629 α      lambda       -0.4282987E-02
   maximum displ.:     0.1396476 α      in ANC's #4, #2, #7, ...

........................................................................
.............................. CYCLE   15 ..............................
........................................................................
   1     -6.6619934 -0.666199E+01  0.778E-01    1.87       0.0  T
   2     -6.6619960 -0.258424E-05  0.510E-01    1.87       1.0  T
   3     -6.6610722  0.923780E-03  0.320E-01    1.87       1.0  T
   4     -6.6617304 -0.658139E-03  0.163E-01    1.89       1.0  T
   5     -6.6620282 -0.297824E-03  0.491E-02    1.88       1.0  T
   6     -6.6619302  0.980122E-04  0.919E-02    1.87       1.0  T
   7     -6.6620343 -0.104067E-03  0.991E-03    1.88       3.8  T
   8     -6.6620346 -0.291118E-06  0.290E-03    1.88      13.0  T
   9     -6.6620346 -0.409529E-07  0.971E-04    1.88      38.9  T
  10     -6.6620346 -0.373485E-08  0.136E-04    1.88     277.1  T
     SCC iter.                  ...        0 min,  0.001 sec
     gradient                   ...        0 min,  0.000 sec
 * total energy  :    -6.5340186 Eh     change       -0.1821566E-02 Eh
   gradient norm :     0.0181534 Eh/α   predicted    -0.2271681E-02 (  24.71%)
   displ. norm   :     0.2360258 α      lambda       -0.2018088E-02
   maximum displ.:     0.1149683 α      in ANC's #1, #8, #12, ...

........................................................................
.............................. CYCLE   16 ..............................
........................................................................
   1     -6.6672565 -0.666726E+01  0.902E-01    1.92       0.0  T
   2     -6.6671458  0.110739E-03  0.619E-01    1.88       1.0  T
   3     -6.6584584  0.868738E-02  0.893E-01    1.92       1.0  T
   4     -6.6670705 -0.861213E-02  0.149E-01    1.90       1.0  T
   5     -6.6672550 -0.184435E-03  0.799E-02    1.92       1.0  T
   6     -6.6672869 -0.319261E-04  0.534E-02    1.91       1.0  T
   7     -6.6672960 -0.906037E-05  0.361E-02    1.90       1.0  T
   8     -6.6673112 -0.152162E-04  0.310E-03    1.91      12.2  T
   9     -6.6673112 -0.698237E-07  0.113E-03    1.91      33.4  T
  10     -6.6673112 -0.764968E-08  0.278E-04    1.91     135.9  T
  11     -6.6673112 -0.530199E-09  0.468E-05    1.91     807.5  T
     SCC iter.                  ...        0 min,  0.002 sec
     gradient                   ...        0 min,  0.000 sec
 * total energy  :    -6.5350039 Eh     change       -0.9852481E-03 Eh
   gradient norm :     0.0115692 Eh/α   predicted    -0.1065256E-02 (   8.12%)
   displ. norm   :     0.1659314 α      lambda       -0.7329604E-03
   maximum displ.:     0.0809196 α      in ANC's #8, #12, #3, ...

........................................................................
.............................. CYCLE   17 ..............................
........................................................................
   1     -6.6660835 -0.666608E+01  0.358E-01    1.89       0.0  T
   2     -6.6660834  0.112369E-06  0.227E-01    1.88       1.0  T
   3     -6.6659100  0.173394E-03  0.133E-01    1.91       1.0  T
   4     -6.6660570 -0.147000E-03  0.549E-02    1.89       1.0  T
   5     -6.6660846 -0.275855E-04  0.263E-02    1.89       1.4  T
   6     -6.6660750  0.962673E-05  0.349E-02    1.88       1.1  T
   7     -6.6660889 -0.138790E-04  0.404E-03    1.89       9.4  T
   8     -6.6660889 -0.475963E-07  0.117E-03    1.89      32.2  T
   9     -6.6660889 -0.590308E-08  0.406E-04    1.89      93.1  T
  10     -6.6660889 -0.697153E-09  0.568E-05    1.89     665.3  T
     SCC iter.                  ...        0 min,  0.002 sec
     gradient                   ...        0 min,  0.000 sec
 * total energy  :    -6.5354491 Eh     change       -0.4451911E-03 Eh
   gradient norm :     0.0100120 Eh/α   predicted    -0.3765699E-03 ( -15.41%)
   displ. norm   :     0.2276268 α      lambda       -0.7309946E-03
   maximum displ.:     0.1253697 α      in ANC's #8, #7, #12, ...

........................................................................
.............................. CYCLE   18 ..............................
........................................................................
   1     -6.6651612 -0.666516E+01  0.560E-01    1.78       0.0  T
   2     -6.6651628 -0.159667E-05  0.369E-01    1.77       1.0  T
   3     -6.6645868  0.575936E-03  0.256E-01    1.86       1.0  T
   4     -6.6650296 -0.442775E-03  0.114E-01    1.77       1.0  T
   5     -6.6651638 -0.134218E-03  0.492E-02    1.80       1.0  T
   6     -6.6651457  0.181543E-04  0.522E-02    1.79       1.0  T
   7     -6.6651794 -0.337654E-04  0.703E-03    1.79       5.4  T
   8     -6.6651797 -0.281581E-06  0.204E-03    1.80      18.5  T
   9     -6.6651797 -0.147202E-07  0.565E-04    1.80      66.9  T
  10     -6.6651797 -0.102674E-08  0.687E-05    1.80     550.5  T
     SCC iter.                  ...        0 min,  0.002 sec
     gradient                   ...        0 min,  0.001 sec
 * total energy  :    -6.5357033 Eh     change       -0.2542014E-03 Eh
   gradient norm :     0.0094089 Eh/α   predicted    -0.3844347E-03 (  51.23%)
   displ. norm   :     0.1301240 α      lambda       -0.4326722E-03
   maximum displ.:     0.0609138 α      in ANC's #1, #12, #8, ...

........................................................................
.............................. CYCLE   19 ..............................
........................................................................
   1     -6.6665987 -0.666660E+01  0.345E-01    1.84       0.0  T
   2     -6.6665967  0.196915E-05  0.227E-01    1.83       1.0  T
   3     -6.6661302  0.466496E-03  0.202E-01    1.87       1.0  T
   4     -6.6665952 -0.464968E-03  0.380E-02    1.82       1.0  T
   5     -6.6665900  0.522933E-05  0.386E-02    1.83       1.0  T
   6     -6.6666013 -0.113796E-04  0.200E-02    1.83       1.9  T
   7     -6.6666050 -0.371291E-05  0.283E-03    1.83      13.4  T
   8     -6.6666051 -0.386428E-07  0.907E-04    1.83      41.7  T
   9     -6.6666051 -0.254630E-08  0.217E-04    1.83     174.4  T
     SCC iter.                  ...        0 min,  0.001 sec
     gradient                   ...        0 min,  0.001 sec
 * total energy  :    -6.5359690 Eh     change       -0.2656688E-03 Eh
   gradient norm :     0.0093922 Eh/α   predicted    -0.2199991E-03 ( -17.19%)
   displ. norm   :     0.1051389 α      lambda       -0.2348406E-03
   maximum displ.:     0.0529672 α      in ANC's #12, #8, #9, ...

........................................................................
.............................. CYCLE   20 ..............................
........................................................................
   1     -6.6681309 -0.666813E+01  0.187E-01    1.85       0.0  T
   2     -6.6681313 -0.414662E-06  0.118E-01    1.84       1.0  T
   3     -6.6681177  0.135811E-04  0.408E-02    1.85       1.0  T
   4     -6.6681276 -0.986142E-05  0.221E-02    1.84       1.7  T
   5     -6.6681301 -0.251237E-05  0.158E-02    1.84       2.4  T
   6     -6.6681292  0.836762E-06  0.150E-02    1.84       2.5  T
   7     -6.6681320 -0.280276E-05  0.121E-03    1.84      31.3  T
   8     -6.6681320 -0.123928E-08  0.335E-04    1.84     113.0  T
   9     -6.6681320 -0.250839E-09  0.972E-05    1.84     388.7  T
     SCC iter.                  ...        0 min,  0.001 sec
     gradient                   ...        0 min,  0.001 sec
 * total energy  :    -6.5361497 Eh     change       -0.1807385E-03 Eh
   gradient norm :     0.0082249 Eh/α   predicted    -0.1187186E-03 ( -34.31%)
   displ. norm   :     0.2093052 α      lambda       -0.4051995E-03
   maximum displ.:     0.1054561 α      in ANC's #8, #12, #1, ...
 * RMSD in coord.:     1.6509163 α      energy gain  -0.4849939E+00 Eh

generating ANC from model Hessian ...
Using Lindh-Hessian (1995)
 Shifting diagonal of input Hessian by    1.0138626697569344E-002
 Lowest  eigenvalues of input Hessian
    0.010000    0.000000    0.000000    0.000000    0.000000    0.000000
    0.000000    0.010224    0.010301    0.010537    0.011519    0.018665
    0.045907    0.161407    0.178476    0.426343    0.531385    0.569690
 Highest eigenvalues
    0.426343    0.531385    0.569690    0.598166    1.080200    1.535355


........................................................................
.............................. CYCLE   21 ..............................
........................................................................
   1     -6.6689521 -0.666895E+01  0.427E-01    1.86       0.0  T
   2     -6.6689509  0.121340E-05  0.272E-01    1.86       1.0  T
   3     -6.6685951  0.355762E-03  0.172E-01    1.89       1.0  T
   4     -6.6689501 -0.354985E-03  0.407E-02    1.86       1.0  T
   5     -6.6689483  0.181895E-05  0.365E-02    1.87       1.0  T
   6     -6.6689478  0.414863E-06  0.281E-02    1.86       1.3  T
   7     -6.6689576 -0.976805E-05  0.229E-03    1.86      16.5  T
   8     -6.6689576 -0.199846E-08  0.995E-04    1.86      38.0  T
   9     -6.6689576 -0.363188E-08  0.244E-04    1.86     154.6  T
     SCC iter.                  ...        0 min,  0.001 sec
     gradient                   ...        0 min,  0.000 sec
 * total energy  :    -6.5364288 Eh     change       -0.2791558E-03 Eh
   gradient norm :     0.0071896 Eh/α   predicted     0.0000000E+00 (-100.00%)
   displ. norm   :     0.0797255 α      lambda       -0.1570235E-03
   maximum displ.:     0.0499425 α      in ANC's #4, #5, #3, ...

........................................................................
.............................. CYCLE   22 ..............................
........................................................................
   1     -6.6676011 -0.666760E+01  0.275E-01    1.86       0.0  T
   2     -6.6676000  0.101910E-05  0.181E-01    1.86       1.0  T
   3     -6.6674139  0.186084E-03  0.121E-01    1.88       1.0  T
   4     -6.6675949 -0.180948E-03  0.338E-02    1.85       1.1  T
   5     -6.6676024 -0.754316E-05  0.123E-02    1.86       3.1  T
   6     -6.6676005  0.197882E-05  0.129E-02    1.86       2.9  T
   7     -6.6676026 -0.213723E-05  0.145E-03    1.86      26.0  T
   8     -6.6676026 -0.102894E-07  0.552E-04    1.86      68.4  T
   9     -6.6676026 -0.163582E-08  0.108E-04    1.86     350.6  T
     SCC iter.                  ...        0 min,  0.001 sec
     gradient                   ...        0 min,  0.000 sec
 * total energy  :    -6.5365353 Eh     change       -0.1064588E-03 Eh
   gradient norm :     0.0033859 Eh/α   predicted    -0.7901177E-04 ( -25.78%)
   displ. norm   :     0.1546899 α      lambda       -0.1680893E-03
   maximum displ.:     0.1032618 α      in ANC's #4, #5, #3, ...

........................................................................
.............................. CYCLE   23 ..............................
........................................................................
   1     -6.6656359 -0.666564E+01  0.477E-01    1.87       0.0  T
   2     -6.6656364 -0.463596E-06  0.315E-01    1.87       1.0  T
   3     -6.6654601  0.176276E-03  0.124E-01    1.88       1.0  T
   4     -6.6655852 -0.125123E-03  0.751E-02    1.85       1.0  T
   5     -6.6656398 -0.546150E-04  0.219E-02    1.87       1.7  T
   6     -6.6656395  0.388640E-06  0.946E-03    1.87       4.0  T
   7     -6.6656405 -0.102327E-05  0.315E-03    1.87      12.0  T
   8     -6.6656406 -0.832407E-07  0.108E-03    1.87      34.9  T
   9     -6.6656406 -0.726484E-08  0.209E-04    1.87     181.1  T
  10     -6.6656406 -0.690727E-10  0.435E-05    1.87     868.6  T
     SCC iter.                  ...        0 min,  0.001 sec
     gradient                   ...        0 min,  0.000 sec
 * total energy  :    -6.5366374 Eh     change       -0.1020803E-03 Eh
   gradient norm :     0.0038993 Eh/α   predicted    -0.8605654E-04 ( -15.70%)
   displ. norm   :     0.1097153 α      lambda       -0.7494232E-04
   maximum displ.:     0.0787083 α      in ANC's #4, #5, #3, ...

........................................................................
.............................. CYCLE   24 ..............................
........................................................................
   1     -6.6654885 -0.666549E+01  0.357E-01    1.87       0.0  T
   2     -6.6654889 -0.435598E-06  0.234E-01    1.88       1.0  T
   3     -6.6654453  0.436324E-04  0.753E-02    1.86       1.0  T
   4     -6.6654744 -0.291124E-04  0.397E-02    1.88       1.0  T
   5     -6.6654874 -0.130469E-04  0.216E-02    1.87       1.7  T
   6     -6.6654837  0.376014E-05  0.229E-02    1.88       1.6  T
   7     -6.6654905 -0.685303E-05  0.132E-03    1.88      28.6  T
   8     -6.6654905 -0.489948E-08  0.603E-04    1.88      62.7  T
   9     -6.6654905 -0.794465E-09  0.133E-04    1.88     283.6  T
     SCC iter.                  ...        0 min,  0.001 sec
     gradient                   ...        0 min,  0.000 sec
 * total energy  :    -6.5367003 Eh     change       -0.6292229E-04 Eh
   gradient norm :     0.0037638 Eh/α   predicted    -0.3792357E-04 ( -39.73%)
   displ. norm   :     0.1482776 α      lambda       -0.1023325E-03
   maximum displ.:     0.1137066 α      in ANC's #4, #5, #3, ...

........................................................................
.............................. CYCLE   25 ..............................
........................................................................
   1     -6.6663912 -0.666639E+01  0.494E-01    1.89       0.0  T
   2     -6.6663910  0.223081E-06  0.325E-01    1.90       1.0  T
   3     -6.6661934  0.197635E-03  0.141E-01    1.86       1.0  T
   4     -6.6663593 -0.165868E-03  0.579E-02    1.90       1.0  T
   5     -6.6663902 -0.309733E-04  0.285E-02    1.89       1.3  T
   6     -6.6663827  0.754314E-05  0.319E-02    1.90       1.2  T
   7     -6.6663952 -0.124902E-04  0.155E-03    1.89      24.4  T
   8     -6.6663952 -0.181330E-08  0.883E-04    1.89      42.8  T
   9     -6.6663952 -0.222319E-08  0.154E-04    1.89     244.8  T
     SCC iter.                  ...        0 min,  0.001 sec
     gradient                   ...        0 min,  0.000 sec
 * total energy  :    -6.5367794 Eh     change       -0.7909721E-04 Eh
   gradient norm :     0.0020428 Eh/α   predicted    -0.5229071E-04 ( -33.89%)
   displ. norm   :     0.1543309 α      lambda       -0.6952089E-04
   maximum displ.:     0.1289844 α      in ANC's #4, #5, #3, ...

........................................................................
.............................. CYCLE   26 ..............................
........................................................................
   1     -6.6665865 -0.666659E+01  0.528E-01    1.90       0.0  T
   2     -6.6665872 -0.652225E-06  0.349E-01    1.91       1.0  T
   3     -6.6664781  0.109040E-03  0.105E-01    1.88       1.0  T
   4     -6.6665686 -0.904799E-04  0.483E-02    1.90       1.0  T
   5     -6.6665870 -0.183703E-04  0.254E-02    1.90       1.5  T
   6     -6.6665730  0.139755E-04  0.384E-02    1.91       1.0  T
   7     -6.6665906 -0.175952E-04  0.169E-03    1.90      22.4  T
   8     -6.6665906 -0.752580E-08  0.868E-04    1.90      43.6  T
   9     -6.6665906 -0.188199E-08  0.145E-04    1.90     260.6  T
     SCC iter.                  ...        0 min,  0.001 sec
     gradient                   ...        0 min,  0.000 sec
 * total energy  :    -6.5368392 Eh     change       -0.5978230E-04 Eh
   gradient norm :     0.0019665 Eh/α   predicted    -0.3558878E-04 ( -40.47%)
   displ. norm   :     0.1792072 α      lambda       -0.5652550E-04
   maximum displ.:     0.1637304 α      in ANC's #4, #5, #3, ...

........................................................................
.............................. CYCLE   27 ..............................
........................................................................
   1     -6.6669473 -0.666695E+01  0.620E-01    1.91       0.0  T
   2     -6.6669487 -0.134765E-05  0.412E-01    1.91       1.0  T
   3     -6.6668516  0.970687E-04  0.937E-02    1.90       1.0  T
   4     -6.6669324 -0.807870E-04  0.500E-02    1.91       1.0  T
   5     -6.6669502 -0.178080E-04  0.250E-02    1.91       1.5  T
   6     -6.6669434  0.684490E-05  0.264E-02    1.90       1.4  T
   7     -6.6669522 -0.884760E-05  0.240E-03    1.91      15.7  T
   8     -6.6669523 -0.400669E-07  0.937E-04    1.91      40.3  T
   9     -6.6669523 -0.207934E-08  0.153E-04    1.91     247.7  T
     SCC iter.                  ...        0 min,  0.001 sec
     gradient                   ...        0 min,  0.000 sec
 * total energy  :    -6.5369187 Eh     change       -0.7953950E-04 Eh
   gradient norm :     0.0021602 Eh/α   predicted    -0.2866620E-04 ( -63.96%)
   displ. norm   :     0.1372949 α      lambda       -0.7790903E-04
   maximum displ.:     0.1305066 α      in ANC's #4, #3, #2, ...

........................................................................
.............................. CYCLE   28 ..............................
........................................................................
   1     -6.6668353 -0.666684E+01  0.461E-01    1.91       0.0  T
   2     -6.6668361 -0.880329E-06  0.306E-01    1.91       1.0  T
   3     -6.6667935  0.426377E-04  0.610E-02    1.91       1.0  T
   4     -6.6668254 -0.319270E-04  0.398E-02    1.91       1.0  T
   5     -6.6668338 -0.836151E-05  0.244E-02    1.92       1.5  T
   6     -6.6668315  0.224876E-05  0.215E-02    1.91       1.8  T
   7     -6.6668377 -0.620038E-05  0.154E-03    1.91      24.5  T
   8     -6.6668378 -0.122198E-07  0.636E-04    1.91      59.4  T
   9     -6.6668378 -0.485778E-09  0.146E-04    1.91     258.6  T
     SCC iter.                  ...        0 min,  0.001 sec
     gradient                   ...        0 min,  0.000 sec
 * total energy  :    -6.5369965 Eh     change       -0.7781924E-04 Eh
   gradient norm :     0.0021519 Eh/α   predicted    -0.3968762E-04 ( -49.00%)
   displ. norm   :     0.9803855 α      lambda       -0.5793250E-03
   maximum displ.:     0.9378988 α      in ANC's #4, #3, #2, ...

........................................................................
.............................. CYCLE   29 ..............................
........................................................................
   1     -6.6535331 -0.665353E+01  0.311E+00    1.87       0.0  T
   2     -6.6535409 -0.774058E-05  0.206E+00    1.89       1.0  T
   3     -6.6471450  0.639580E-02  0.727E-01    1.81       1.0  T
   4     -6.6528094 -0.566434E-02  0.326E-01    1.85       1.0  T
   5     -6.6536213 -0.811949E-03  0.143E-01    1.89       1.0  T
   6     -6.6530488  0.572551E-03  0.225E-01    1.84       1.0  T
   7     -6.6537010 -0.652193E-03  0.165E-02    1.88       2.3  T
   8     -6.6537024 -0.140214E-05  0.497E-03    1.88       7.6  T
   9     -6.6537024 -0.418728E-07  0.183E-03    1.88      20.6  T
  10     -6.6537024 -0.967817E-08  0.265E-04    1.88     142.5  T
  11     -6.6537024  0.950537E-10  0.165E-04    1.88     228.6  T
     SCC iter.                  ...        0 min,  0.001 sec
     gradient                   ...        0 min,  0.000 sec
 * total energy  :    -6.5370407 Eh     change       -0.4418273E-04 Eh
   gradient norm :     0.0271507 Eh/α   predicted    -0.5680569E-03 (1185.70%)
   displ. norm   :     0.5092213 α      lambda       -0.2023044E-02
   maximum displ.:     0.3856557 α      in ANC's #5, #3, #4, ...

........................................................................
.............................. CYCLE   30 ..............................
........................................................................
   1     -6.6669193 -0.666692E+01  0.729E-01    1.89       0.0  T
   2     -6.6668552  0.640855E-04  0.464E-01    1.86       1.0  T
   3     -6.6641061  0.274915E-02  0.516E-01    1.91       1.0  T
   4     -6.6666510 -0.254493E-02  0.166E-01    1.87       1.0  T
   5     -6.6669604 -0.309416E-03  0.632E-02    1.88       1.0  T
   6     -6.6669670 -0.654420E-05  0.541E-02    1.86       1.0  T
   7     -6.6669944 -0.274016E-04  0.535E-03    1.87       7.1  T
   8     -6.6669944 -0.497170E-08  0.231E-03    1.87      16.3  T
   9     -6.6669944 -0.386369E-08  0.719E-04    1.87      52.5  T
  10     -6.6669944 -0.277490E-08  0.125E-04    1.87     303.5  T
     SCC iter.                  ...        0 min,  0.001 sec
     gradient                   ...        0 min,  0.001 sec
 * total energy  :    -6.5376947 Eh     change       -0.6540001E-03 Eh
   gradient norm :     0.0199705 Eh/α   predicted    -0.1273833E-02 (  94.78%)
   displ. norm   :     0.5269645 α      lambda       -0.8635109E-03
   maximum displ.:     0.4979054 α      in ANC's #4, #5, #13, ...

........................................................................
.............................. CYCLE   31 ..............................
........................................................................
   1     -6.6582687 -0.665827E+01  0.150E+00    1.88       0.0  T
   2     -6.6583349 -0.661616E-04  0.974E-01    1.89       1.0  T
   3     -6.6571816  0.115331E-02  0.408E-01    1.81       1.0  T
   4     -6.6582169 -0.103535E-02  0.153E-01    1.86       1.0  T
   5     -6.6583151 -0.981988E-04  0.100E-01    1.88       1.0  T
   6     -6.6583514 -0.362687E-04  0.735E-02    1.86       1.0  T
   7     -6.6584137 -0.622438E-04  0.183E-02    1.87       2.1  T
   8     -6.6584153 -0.167436E-05  0.263E-03    1.87      14.4  T
   9     -6.6584153 -0.823368E-08  0.110E-03    1.87      34.5  T
  10     -6.6584153 -0.726726E-09  0.227E-04    1.87     166.6  T
  11     -6.6584153 -0.561764E-10  0.366E-05    1.87    1032.0  T
     SCC iter.                  ...        0 min,  0.002 sec
     gradient                   ...        0 min,  0.000 sec
 * total energy  :    -6.5384153 Eh     change       -0.7205370E-03 Eh
   gradient norm :     0.0285912 Eh/α   predicted    -0.5516377E-03 ( -23.44%)
   displ. norm   :     0.6284216 α      lambda       -0.4539073E-02
   maximum displ.:     0.3762411 α      in ANC's #3, #2, #9, ...

........................................................................
.............................. CYCLE   32 ..............................
........................................................................
   1     -6.6384284 -0.663843E+01  0.201E+00    1.68       0.0  T
   2     -6.6365206  0.190775E-02  0.135E+00    1.70       1.0  T
   3     -6.5954005  0.411201E-01  0.190E+00    1.48       1.0  T
   4     -6.6362181 -0.408176E-01  0.586E-01    1.65       1.0  T
   5     -6.6386884 -0.247031E-02  0.340E-01    1.61       1.0  T
   6     -6.6395994 -0.910942E-03  0.178E-01    1.63       1.0  T
   7     -6.6398794 -0.280016E-03  0.632E-02    1.63       1.0  T
   8     -6.6398894 -0.100545E-04  0.171E-02    1.63       2.2  T
   9     -6.6398912 -0.175659E-05  0.658E-03    1.64       5.7  T
  10     -6.6398914 -0.228055E-06  0.224E-03    1.63      16.8  T
  11     -6.6398915 -0.447982E-07  0.951E-04    1.63      39.7  T
  12     -6.6398915 -0.107477E-07  0.864E-05    1.63     437.4  T
     SCC iter.                  ...        0 min,  0.001 sec
     gradient                   ...        0 min,  0.000 sec
 * total energy  :    -6.5260836 Eh     change        0.1233169E-01 Eh
   gradient norm :     0.1010582 Eh/α   predicted    -0.3165876E-02 (-125.67%)
   displ. norm   :     0.3711432 α      lambda       -0.2283856E-01
   maximum displ.:     0.2789465 α      in ANC's #3, #9, #2, ...

........................................................................
.............................. CYCLE   33 ..............................
........................................................................
   1     -6.6516180 -0.665162E+01  0.115E+00    1.80       0.0  T
   2     -6.6504544  0.116357E-02  0.806E-01    1.76       1.0  T
   3     -6.6355629  0.148916E-01  0.117E+00    1.89       1.0  T
   4     -6.6516659 -0.161031E-01  0.230E-01    1.81       1.0  T
   5     -6.6519600 -0.294116E-03  0.138E-01    1.82       1.0  T
   6     -6.6519661 -0.606494E-05  0.134E-01    1.81       1.0  T
   7     -6.6521394 -0.173262E-03  0.242E-02    1.81       1.6  T
   8     -6.6521392  0.213177E-06  0.109E-02    1.81       3.5  T
   9     -6.6521398 -0.599887E-06  0.223E-03    1.81      17.0  T
  10     -6.6521398 -0.115337E-07  0.344E-04    1.81     109.8  T
  11     -6.6521398 -0.174246E-09  0.154E-04    1.81     245.3  T
     SCC iter.                  ...        0 min,  0.002 sec
     gradient                   ...        0 min,  0.000 sec
 * total energy  :    -6.5388023 Eh     change       -0.1271874E-01 Eh
   gradient norm :     0.0261528 Eh/α   predicted    -0.1299224E-01 (   2.15%)
   displ. norm   :     0.5532047 α      lambda       -0.1961515E-02
   maximum displ.:     0.3694235 α      in ANC's #5, #4, #2, ...

........................................................................
.............................. CYCLE   34 ..............................
........................................................................
   1     -6.6529471 -0.665295E+01  0.863E-01    1.89       0.0  T
   2     -6.6530690 -0.121884E-03  0.533E-01    1.84       1.0  T
   3     -6.6476107  0.545825E-02  0.662E-01    1.91       1.0  T
   4     -6.6531138 -0.550309E-02  0.172E-01    1.81       1.0  T
   5     -6.6528607  0.253090E-03  0.222E-01    1.85       1.0  T
   6     -6.6532279 -0.367210E-03  0.893E-02    1.84       1.0  T
   7     -6.6533206 -0.926445E-04  0.219E-02    1.84       1.7  T
   8     -6.6533214 -0.818777E-06  0.762E-03    1.84       5.0  T
   9     -6.6533216 -0.201604E-06  0.406E-03    1.84       9.3  T
  10     -6.6533217 -0.109629E-06  0.739E-04    1.84      51.2  T
  11     -6.6533217 -0.178865E-08  0.331E-04    1.84     114.1  T
     SCC iter.                  ...        0 min,  0.001 sec
     gradient                   ...        0 min,  0.000 sec
 * total energy  :    -6.5399577 Eh     change       -0.1155344E-02 Eh
   gradient norm :     0.0234891 Eh/α   predicted    -0.1280887E-02 (  10.87%)
   displ. norm   :     0.2486467 α      lambda       -0.1097024E-02
   maximum displ.:     0.1378675 α      in ANC's #4, #1, #5, ...

........................................................................
.............................. CYCLE   35 ..............................
........................................................................
   1     -6.6573224 -0.665732E+01  0.490E-01    1.86       0.0  T
   2     -6.6572484  0.740278E-04  0.335E-01    1.84       1.0  T
   3     -6.6542373  0.301113E-02  0.480E-01    1.86       1.0  T
   4     -6.6573701 -0.313285E-02  0.498E-02    1.84       1.0  T
   5     -6.6573572  0.129401E-04  0.453E-02    1.84       1.0  T
   6     -6.6573530  0.422287E-05  0.452E-02    1.85       1.0  T
   7     -6.6573756 -0.226684E-04  0.881E-03    1.84       4.3  T
   8     -6.6573758 -0.212335E-06  0.333E-03    1.84      11.3  T
   9     -6.6573759 -0.211433E-07  0.161E-03    1.84      23.5  T
  10     -6.6573759 -0.150535E-07  0.289E-04    1.84     131.0  T
  11     -6.6573759 -0.113160E-09  0.582E-05    1.84     649.4  T
     SCC iter.                  ...        0 min,  0.001 sec
     gradient                   ...        0 min,  0.000 sec
 * total energy  :    -6.5403957 Eh     change       -0.4380733E-03 Eh
   gradient norm :     0.0176505 Eh/α   predicted    -0.5824174E-03 (  32.95%)
   displ. norm   :     0.1405904 α      lambda       -0.8506464E-03
   maximum displ.:     0.0824177 α      in ANC's #5, #4, #1, ...

........................................................................
.............................. CYCLE   36 ..............................
........................................................................
   1     -6.6610147 -0.666101E+01  0.286E-01    1.89       0.0  T
   2     -6.6609370  0.776577E-04  0.207E-01    1.90       1.0  T
   3     -6.6599891  0.947915E-03  0.285E-01    1.87       1.0  T
   4     -6.6610383 -0.104922E-02  0.275E-02    1.89       1.4  T
   5     -6.6610376  0.724391E-06  0.230E-02    1.89       1.6  T
   6     -6.6610318  0.577231E-05  0.264E-02    1.89       1.4  T
   7     -6.6610405 -0.866076E-05  0.332E-03    1.89      11.4  T
   8     -6.6610405 -0.316244E-07  0.156E-03    1.89      24.2  T
   9     -6.6610405 -0.574634E-08  0.591E-04    1.89      63.9  T
  10     -6.6610405 -0.167858E-08  0.132E-04    1.89     287.0  T
     SCC iter.                  ...        0 min,  0.001 sec
     gradient                   ...        0 min,  0.000 sec
 * total energy  :    -6.5408094 Eh     change       -0.4136882E-03 Eh
   gradient norm :     0.0121486 Eh/α   predicted    -0.4337283E-03 (   4.84%)
   displ. norm   :     0.6993268 α      lambda       -0.2121285E-02
   maximum displ.:     0.6525863 α      in ANC's #4, #2, #9, ...

........................................................................
.............................. CYCLE   37 ..............................
........................................................................
   1     -6.6344023 -0.663440E+01  0.252E+00    1.77       0.0  T
   2     -6.6349894 -0.587118E-03  0.160E+00    1.68       1.0  T
   3     -6.6190116  0.159778E-01  0.140E+00    1.60       1.0  T
   4     -6.6259254 -0.691386E-02  0.879E-01    1.63       1.0  T
   5     -6.6351439 -0.921846E-02  0.359E-01    1.66       1.0  T
   6     -6.6345143  0.629591E-03  0.405E-01    1.62       1.0  T
   7     -6.6364512 -0.193695E-02  0.997E-02    1.65       1.0  T
   8     -6.6364715 -0.202163E-04  0.622E-02    1.65       1.0  T
   9     -6.6365153 -0.438064E-04  0.935E-03    1.65       4.0  T
  10     -6.6365160 -0.723454E-06  0.242E-03    1.65      15.6  T
  11     -6.6365160 -0.420965E-07  0.619E-04    1.65      61.0  T
  12     -6.6365160 -0.172606E-08  0.164E-04    1.65     230.6  T
     SCC iter.                  ...        0 min,  0.002 sec
     gradient                   ...        0 min,  0.000 sec
 * total energy  :    -6.5388721 Eh     change        0.1937354E-02 Eh
   gradient norm :     0.0368309 Eh/α   predicted    -0.1579374E-02 (-181.52%)
   displ. norm   :     0.3749138 α      lambda       -0.5374177E-02
   maximum displ.:     0.3355218 α      in ANC's #4, #1, #9, ...

........................................................................
.............................. CYCLE   38 ..............................
........................................................................
   1     -6.6504720 -0.665047E+01  0.134E+00    1.84       0.0  T
   2     -6.6505479 -0.758778E-04  0.900E-01    1.85       1.0  T
   3     -6.6462411  0.430679E-02  0.761E-01    1.87       1.0  T
   4     -6.6474939 -0.125285E-02  0.513E-01    1.82       1.0  T
   5     -6.6507245 -0.323052E-02  0.141E-01    1.89       1.0  T
   6     -6.6506298  0.946333E-04  0.147E-01    1.89       1.0  T
   7     -6.6509057 -0.275856E-03  0.292E-02    1.89       1.3  T
   8     -6.6509109 -0.525277E-05  0.104E-02    1.89       3.6  T
   9     -6.6509116 -0.707469E-06  0.418E-03    1.89       9.0  T
  10     -6.6509118 -0.110567E-06  0.788E-04    1.89      48.0  T
  11     -6.6509118 -0.893974E-09  0.237E-04    1.89     159.6  T
     SCC iter.                  ...        0 min,  0.002 sec
     gradient                   ...        0 min,  0.000 sec
 * total energy  :    -6.5414430 Eh     change       -0.2570895E-02 Eh
   gradient norm :     0.0070046 Eh/α   predicted    -0.3064791E-02 (  19.21%)
   displ. norm   :     0.1832060 α      lambda       -0.2987498E-03
   maximum displ.:     0.1468791 α      in ANC's #5, #2, #3, ...

........................................................................
.............................. CYCLE   39 ..............................
........................................................................
   1     -6.6539443 -0.665394E+01  0.634E-01    1.89       0.0  T
   2     -6.6539074  0.368325E-04  0.431E-01    1.88       1.0  T
   3     -6.6496679  0.423954E-02  0.549E-01    1.78       1.0  T
   4     -6.6538594 -0.419155E-02  0.960E-02    1.88       1.0  T
   5     -6.6539254 -0.659735E-04  0.665E-02    1.88       1.0  T
   6     -6.6539565 -0.311045E-04  0.348E-02    1.88       1.1  T
   7     -6.6539657 -0.919944E-05  0.149E-02    1.88       2.5  T
   8     -6.6539678 -0.204477E-05  0.362E-03    1.88      10.5  T
   9     -6.6539678 -0.650956E-07  0.644E-04    1.88      58.7  T
  10     -6.6539678 -0.808932E-09  0.264E-04    1.88     143.2  T
     SCC iter.                  ...        0 min,  0.001 sec
     gradient                   ...        0 min,  0.000 sec
 * total energy  :    -6.5414454 Eh     change       -0.2407796E-05 Eh
   gradient norm :     0.0069349 Eh/α   predicted    -0.1543893E-03 (6312.06%)
   displ. norm   :     0.1211977 α      lambda       -0.2644454E-03
   maximum displ.:     0.0788584 α      in ANC's #2, #5, #6, ...

........................................................................
.............................. CYCLE   40 ..............................
........................................................................
   1     -6.6524526 -0.665245E+01  0.328E-01    1.86       0.0  T
   2     -6.6524454  0.718704E-05  0.214E-01    1.86       1.0  T
   3     -6.6517783  0.667143E-03  0.226E-01    1.86       1.0  T
   4     -6.6524593 -0.681050E-03  0.289E-02    1.86       1.3  T
   5     -6.6524574  0.188146E-05  0.254E-02    1.86       1.5  T
   6     -6.6524545  0.291124E-05  0.233E-02    1.86       1.6  T
   7     -6.6524609 -0.642085E-05  0.639E-03    1.86       5.9  T
   8     -6.6524612 -0.282399E-06  0.266E-03    1.86      14.2  T
   9     -6.6524613 -0.382829E-07  0.452E-04    1.86      83.7  T
  10     -6.6524613 -0.100415E-08  0.177E-04    1.86     213.6  T
     SCC iter.                  ...        0 min,  0.001 sec
     gradient                   ...        0 min,  0.000 sec
 * total energy  :    -6.5415761 Eh     change       -0.1307418E-03 Eh
   gradient norm :     0.0040033 Eh/α   predicted    -0.1341634E-03 (   2.62%)
   displ. norm   :     0.0495992 α      lambda       -0.8367496E-04
   maximum displ.:     0.0312805 α      in ANC's #4, #2, #7, ...

........................................................................
.............................. CYCLE   41 ..............................
........................................................................
   1     -6.6514853 -0.665149E+01  0.251E-01    1.86       0.0  T
   2     -6.6514825  0.287786E-05  0.164E-01    1.86       1.0  T
   3     -6.6512255  0.256951E-03  0.147E-01    1.86       1.0  T
   4     -6.6514729 -0.247372E-03  0.382E-02    1.86       1.0  T
   5     -6.6514885 -0.156138E-04  0.116E-02    1.86       3.3  T
   6     -6.6514842  0.425225E-05  0.201E-02    1.86       1.9  T
   7     -6.6514892 -0.497433E-05  0.310E-03    1.86      12.2  T
   8     -6.6514893 -0.548708E-07  0.660E-04    1.86      57.2  T
   9     -6.6514893 -0.806104E-09  0.189E-04    1.86     200.3  T
     SCC iter.                  ...        0 min,  0.001 sec
     gradient                   ...        0 min,  0.000 sec
 * total energy  :    -6.5415953 Eh     change       -0.1916971E-04 Eh
   gradient norm :     0.0051267 Eh/α   predicted    -0.4193862E-04 ( 118.78%)
   displ. norm   :     0.0362761 α      lambda       -0.4102453E-04
   maximum displ.:     0.0255121 α      in ANC's #2, #5, #3, ...

........................................................................
.............................. CYCLE   42 ..............................
........................................................................
   1     -6.6517929 -0.665179E+01  0.180E-01    1.85       0.0  T
   2     -6.6517918  0.104379E-05  0.119E-01    1.85       1.0  T
   3     -6.6516625  0.129367E-03  0.978E-02    1.85       1.0  T
   4     -6.6517919 -0.129460E-03  0.152E-02    1.85       2.5  T
   5     -6.6517905  0.140307E-05  0.178E-02    1.85       2.1  T
   6     -6.6517937 -0.314848E-05  0.803E-03    1.85       4.7  T
   7     -6.6517941 -0.449170E-06  0.209E-03    1.85      18.1  T
   8     -6.6517941 -0.180675E-07  0.702E-04    1.85      53.8  T
   9     -6.6517941 -0.108123E-08  0.133E-04    1.85     284.6  T
     SCC iter.                  ...        0 min,  0.001 sec
     gradient                   ...        0 min,  0.000 sec
 * total energy  :    -6.5416236 Eh     change       -0.2834064E-04 Eh
   gradient norm :     0.0033077 Eh/α   predicted    -0.2053871E-04 ( -27.53%)
   displ. norm   :     0.0492794 α      lambda       -0.3222741E-04
   maximum displ.:     0.0430612 α      in ANC's #2, #4, #13, ...
 * RMSD in coord.:     1.2804345 α      energy gain  -0.5473931E-02 Eh

generating ANC from model Hessian ...
Using Lindh-Hessian (1995)
 Shifting diagonal of input Hessian by    1.0183582212335129E-002
 Lowest  eigenvalues of input Hessian
    0.010000    0.000000    0.000000    0.000000    0.000000    0.000000
    0.000000    0.011313    0.011839    0.017782    0.018262    0.038798
    0.040479    0.156346    0.168217    0.255045    0.426465    0.511755
 Highest eigenvalues
    0.255045    0.426465    0.511755    0.575190    1.086096    1.476290


........................................................................
.............................. CYCLE   43 ..............................
........................................................................
   1     -6.6518411 -0.665184E+01  0.276E-01    1.85       0.0  T
   2     -6.6518416 -0.489540E-06  0.180E-01    1.85       1.0  T
   3     -6.6518189  0.226550E-04  0.500E-02    1.85       1.0  T
   4     -6.6518350 -0.160950E-04  0.247E-02    1.85       1.5  T
   5     -6.6518413 -0.629343E-05  0.110E-02    1.85       3.4  T
   6     -6.6518411  0.189089E-06  0.968E-03    1.85       3.9  T
   7     -6.6518423 -0.119327E-05  0.163E-03    1.85      23.2  T
   8     -6.6518423 -0.126709E-07  0.499E-04    1.85      75.8  T
   9     -6.6518423 -0.965706E-09  0.141E-04    1.85     268.2  T
     SCC iter.                  ...        0 min,  0.001 sec
     gradient                   ...        0 min,  0.000 sec
 * total energy  :    -6.5416478 Eh     change       -0.2415739E-04 Eh
   gradient norm :     0.0035679 Eh/α   predicted     0.0000000E+00 (-100.00%)
   displ. norm   :     0.0729362 α      lambda       -0.1028855E-03
   maximum displ.:     0.0639747 α      in ANC's #2, #7, #4, ...

........................................................................
.............................. CYCLE   44 ..............................
........................................................................
   1     -6.6521851 -0.665219E+01  0.389E-01    1.86       0.0  T
   2     -6.6521807  0.432544E-05  0.251E-01    1.86       1.0  T
   3     -6.6516560  0.524744E-03  0.195E-01    1.86       1.0  T
   4     -6.6521811 -0.525118E-03  0.277E-02    1.86       1.4  T
   5     -6.6521830 -0.191620E-05  0.240E-02    1.86       1.6  T
   6     -6.6521885 -0.550837E-05  0.644E-03    1.86       5.9  T
   7     -6.6521887 -0.142031E-06  0.367E-03    1.86      10.3  T
   8     -6.6521888 -0.894920E-07  0.675E-04    1.86      56.0  T
   9     -6.6521888 -0.422248E-09  0.381E-04    1.86      99.3  T
     SCC iter.                  ...        0 min,  0.001 sec
     gradient                   ...        0 min,  0.000 sec
 * total energy  :    -6.5416899 Eh     change       -0.4213271E-04 Eh
   gradient norm :     0.0024738 Eh/α   predicted    -0.5171603E-04 (  22.75%)
   displ. norm   :     0.0714934 α      lambda       -0.7130424E-04
   maximum displ.:     0.0511008 α      in ANC's #2, #1, #5, ...

........................................................................
.............................. CYCLE   45 ..............................
........................................................................
   1     -6.6526015 -0.665260E+01  0.345E-01    1.87       0.0  T
   2     -6.6525977  0.375367E-05  0.220E-01    1.87       1.0  T
   3     -6.6521212  0.476569E-03  0.187E-01    1.86       1.0  T
   4     -6.6525998 -0.478675E-03  0.219E-02    1.87       1.7  T
   5     -6.6526001 -0.265041E-06  0.201E-02    1.87       1.9  T
   6     -6.6526037 -0.359358E-05  0.682E-03    1.87       5.5  T
   7     -6.6526040 -0.334461E-06  0.309E-03    1.87      12.2  T
   8     -6.6526041 -0.393919E-07  0.409E-04    1.87      92.3  T
   9     -6.6526041  0.141254E-08  0.399E-04    1.87      94.8  T
     SCC iter.                  ...        0 min,  0.001 sec
     gradient                   ...        0 min,  0.000 sec
 * total energy  :    -6.5417359 Eh     change       -0.4601017E-04 Eh
   gradient norm :     0.0011000 Eh/α   predicted    -0.3583606E-04 ( -22.11%)
   displ. norm   :     0.1074567 α      lambda       -0.3517464E-04
   maximum displ.:     0.0992628 α      in ANC's #2, #5, #1, ...

........................................................................
.............................. CYCLE   46 ..............................
........................................................................
   1     -6.6525733 -0.665257E+01  0.658E-01    1.87       0.0  T
   2     -6.6525720  0.125829E-05  0.426E-01    1.87       1.0  T
   3     -6.6521490  0.422997E-03  0.184E-01    1.86       1.0  T
   4     -6.6525758 -0.426810E-03  0.224E-02    1.87       1.7  T
   5     -6.6525650  0.108227E-04  0.327E-02    1.87       1.2  T
   6     -6.6525778 -0.128280E-04  0.513E-03    1.87       7.4  T
   7     -6.6525781 -0.272668E-06  0.188E-03    1.87      20.1  T
   8     -6.6525781 -0.226932E-07  0.529E-04    1.87      71.4  T
   9     -6.6525781 -0.119424E-09  0.154E-04    1.87     244.7  T
     SCC iter.                  ...        0 min,  0.001 sec
     gradient                   ...        0 min,  0.000 sec
 * total energy  :    -6.5417283 Eh     change        0.7620435E-05 Eh
   gradient norm :     0.0021770 Eh/α   predicted    -0.1767769E-04 (-331.98%)
   displ. norm   :     0.0493970 α      lambda       -0.4985390E-04
   maximum displ.:     0.0398670 α      in ANC's #1, #2, #3, ...

........................................................................
.............................. CYCLE   47 ..............................
........................................................................
   1     -6.6523990 -0.665240E+01  0.210E-01    1.87       0.0  T
   2     -6.6523989  0.594641E-07  0.134E-01    1.87       1.0  T
   3     -6.6523483  0.505900E-04  0.622E-02    1.87       1.0  T
   4     -6.6523995 -0.511831E-04  0.938E-03    1.87       4.0  T
   5     -6.6523987  0.836842E-06  0.966E-03    1.87       3.9  T
   6     -6.6523995 -0.785185E-06  0.416E-03    1.87       9.1  T
   7     -6.6523996 -0.149833E-06  0.177E-03    1.87      21.4  T
   8     -6.6523996 -0.281021E-07  0.334E-04    1.87     113.1  T
   9     -6.6523996 -0.144291E-09  0.110E-04    1.87     344.0  T
     SCC iter.                  ...        0 min,  0.001 sec
     gradient                   ...        0 min,  0.000 sec
 * total energy  :    -6.5417550 Eh     change       -0.2671430E-04 Eh
   gradient norm :     0.0014052 Eh/α   predicted    -0.2498905E-04 (  -6.46%)
   displ. norm   :     0.0434976 α      lambda       -0.1103876E-04
   maximum displ.:     0.0347074 α      in ANC's #2, #5, #1, ...

........................................................................
.............................. CYCLE   48 ..............................
........................................................................
   1     -6.6527171 -0.665272E+01  0.210E-01    1.88       0.0  T
   2     -6.6527164  0.654214E-06  0.136E-01    1.88       1.0  T
   3     -6.6526056  0.110830E-03  0.893E-02    1.88       1.0  T
   4     -6.6527155 -0.109888E-03  0.177E-02    1.88       2.1  T
   5     -6.6527176 -0.217229E-05  0.664E-03    1.88       5.7  T
   6     -6.6527166  0.100368E-05  0.957E-03    1.88       3.9  T
   7     -6.6527178 -0.117420E-05  0.730E-04    1.88      51.8  T
   8     -6.6527178 -0.289948E-08  0.364E-04    1.88     103.8  T
   9     -6.6527178 -0.178587E-09  0.116E-04    1.88     327.0  T
     SCC iter.                  ...        0 min,  0.001 sec
     gradient                   ...        0 min,  0.000 sec
 * total energy  :    -6.5417599 Eh     change       -0.4887989E-05 Eh
   gradient norm :     0.0006717 Eh/α   predicted    -0.5523374E-05 (  13.00%)
   displ. norm   :     0.0183971 α      lambda       -0.2855677E-05
   maximum displ.:     0.0096749 α      in ANC's #2, #1, #5, ...

   *** GEOMETRY OPTIMIZATION CONVERGED AFTER 48 ITERATIONS ***

------------------------------------------------------------------------
 total energy gain   :        -0.4906041 Eh     -307.8587 kcal/mol
 total RMSD          :         2.3150173 a0        1.2251 Å
 total power (kW/mol):       -26.8350189 (step)********** (real)
------------------------------------------------------------------------

 ANCopt (total)                0 d,  0 h,  0 min,  0.115 sec
 optimizer setup                ...        0 min,  0.000 sec (  0.020%)
 model hessian                  ...        0 min,  0.000 sec (  0.125%)
 ANC generation                 ...        0 min,  0.000 sec (  0.078%)
 coordinate transformation      ...        0 min,  0.000 sec (  0.090%)
 single point calculation       ...        0 min,  0.111 sec ( 96.423%)
 optimization log               ...        0 min,  0.001 sec (  0.872%)
 hessian update                 ...        0 min,  0.001 sec (  1.088%)
 rational function              ...        0 min,  0.001 sec (  0.602%)

================
 final structure:
================
7
 xtb: 6.5.1 (conda-forge)
Be           0.25053163684617        0.37026611254834        1.28895729967354
B            1.64299360772420       -0.37721930279431        0.65326544149270
B            1.43696869691330        0.29289802414119        2.55369546604700
C            2.52043281487396       -0.36785977606441        1.80496944311123
H            3.52188020028427       -0.69179059002444        2.04900174199675
H            2.11292912107394        0.82745705068566        5.02096870175112
H            1.83526392228437        0.65119348150853        4.14114190592790

 Bond Distances (Angstroems)
 ---------------------------
Be1-B2=1.7035        Be1-B3=1.7359        B2-Be1=1.7035        B2-B3=2.0256         B2-C4=1.4479         B3-Be1=1.7359        
B3-B2=2.0256         B3-C4=1.4735         C4-B2=1.4479         C4-B3=1.4735         C4-H5=1.0805         H5-C4=1.0805         
 B  Be Rav=1.7197 sigma=0.0162  Rmin=1.7035  Rmax=1.7359     2
 B  B  Rav=2.0256 sigma=0.0000  Rmin=2.0256  Rmax=2.0256     1
 C  H  Rav=1.0805 sigma=0.0000  Rmin=1.0805  Rmax=1.0805     1
 C  B  Rav=1.4607 sigma=0.0128  Rmin=1.4479  Rmax=1.4735     2

 selected bond angles (degree)
 --------------------
B3-Be1-B2= 72.16               B3-B2-Be1= 54.66               C4-B2-Be1=101.29               C4-B2-B3= 46.62                
B2-B3-Be1= 53.18               C4-B3-Be1= 98.76               C4-B3-B2= 45.58                B3-C4-B2= 87.79                
H5-C4-B2=137.68                H5-C4-B3=134.53                

 selected dihedral angles (degree)
 ---------------------------------
C4-B2-Be1-B3=  0.00           C4-B3-Be1-B2=  0.00           Be1-B3-B2-C4=180.02           C4-B3-B2-Be1=179.98           
B3-C4-B2-Be1=  0.00           H5-C4-B2-Be1=179.76           H5-C4-B2-B3=179.78            B2-C4-B3-Be1=  0.00           
H5-C4-B3-Be1=180.22           H5-C4-B3-B2=180.21            

 CMA Distance (Angstroems)
 ---------------------------
R(CMA):  1.5495
           -------------------------------------------------
          |                Final Singlepoint                |
           -------------------------------------------------

          ...................................................
          :                      SETUP                      :
          :.................................................:
          :  # basis functions                  19          :
          :  # atomic orbitals                  19          :
          :  # shells                           11          :
          :  # electrons                        15          :
          :  max. iterations                   250          :
          :  Hamiltonian                  GFN2-xTB          :
          :  restarted?                      false          :
          :  GBSA solvation                  false          :
          :  PC potential                    false          :
          :  electronic temp.          300.0000000     K    :
          :  accuracy                    1.0000000          :
          :  -> integral cutoff          0.2500000E+02      :
          :  -> integral neglect         0.1000000E-07      :
          :  -> SCF convergence          0.1000000E-05 Eh   :
          :  -> wf. convergence          0.1000000E-03 e    :
          :  Broyden damping             0.4000000          :
          ...................................................

 iter      E             dE          RMSdq      gap      omega  full diag
   1     -6.6527178 -0.665272E+01  0.275E-05    1.88       0.0  T
   2     -6.6527178  0.165761E-10  0.366E-05    1.88    1032.9  T
   3     -6.6527178 -0.131735E-10  0.254E-05    1.88    1490.2  T

   *** convergence criteria satisfied after 3 iterations ***

         #    Occupation            Energy/Eh            Energy/eV
      -------------------------------------------------------------
         1        2.0000           -0.4968798             -13.5208
         2        2.0000           -0.4335894             -11.7986
         3        2.0000           -0.4220917             -11.4857
         4        2.0000           -0.3605409              -9.8108
         5        2.0000           -0.3368270              -9.1655
         6        2.0000           -0.3272901              -8.9060
         7        2.0000           -0.2969140              -8.0794
         8        1.0000           -0.2355177              -6.4088 (HOMO)
         9                         -0.1665604              -4.5323 (LUMO)
        10                         -0.1644071              -4.4737
        11                         -0.1613102              -4.3895
        12                         -0.1264825              -3.4418
        13                          0.0020189               0.0549
       ...                                ...                  ...
        19                          1.3764719              37.4557
      -------------------------------------------------------------
                  HL-Gap            0.0689574 Eh            1.8764 eV
             Fermi-level           -0.2336274 Eh           -6.3573 eV

 SCC (total)                   0 d,  0 h,  0 min,  0.001 sec
 SCC setup                      ...        0 min,  0.000 sec (  3.803%)
 Dispersion                     ...        0 min,  0.000 sec (  5.679%)
 classical contributions        ...        0 min,  0.000 sec (  4.804%)
 integral evaluation            ...        0 min,  0.000 sec (  8.206%)
 iterations                     ...        0 min,  0.000 sec ( 25.594%)
 molecular gradient             ...        0 min,  0.000 sec ( 48.061%)
 printout                       ...        0 min,  0.000 sec (  2.927%)

         :::::::::::::::::::::::::::::::::::::::::::::::::::::
         ::                     SUMMARY                     ::
         :::::::::::::::::::::::::::::::::::::::::::::::::::::
         :: total energy              -6.541759905323 Eh    ::
         :: gradient norm              0.000671736783 Eh/a0 ::
         :: HOMO-LUMO gap              1.876425166158 eV    ::
         ::.................................................::
         :: SCC energy                -6.652717800890 Eh    ::
         :: -> isotropic ES           -0.010729981445 Eh    ::
         :: -> anisotropic ES          0.005665966129 Eh    ::
         :: -> anisotropic XC         -0.012568091733 Eh    ::
         :: -> dispersion             -0.003127523568 Eh    ::
         :: repulsion energy           0.110957195742 Eh    ::
         :: add. restraining           0.000000000000 Eh    ::
         :: total charge               0.000000000000 e     ::
         :::::::::::::::::::::::::::::::::::::::::::::::::::::

           -------------------------------------------------
          |                Property Printout                |
           -------------------------------------------------

    * Orbital Energies and Occupations

         #    Occupation            Energy/Eh            Energy/eV
      -------------------------------------------------------------
         1        2.0000           -0.4968798             -13.5208
         2        2.0000           -0.4335894             -11.7986
         3        2.0000           -0.4220917             -11.4857
         4        2.0000           -0.3605409              -9.8108
         5        2.0000           -0.3368270              -9.1655
         6        2.0000           -0.3272901              -8.9060
         7        2.0000           -0.2969140              -8.0794
         8        1.0000           -0.2355177              -6.4088 (HOMO)
         9                         -0.1665604              -4.5323 (LUMO)
        10                         -0.1644071              -4.4737
        11                         -0.1613102              -4.3895
        12                         -0.1264825              -3.4418
        13                          0.0020189               0.0549
        14                          0.1982018               5.3933
        15                          0.2632232               7.1627
        16                          0.2847842               7.7494
        17                          0.4729123              12.8686
        18                          0.5367855              14.6067
        19                          1.3764719              37.4557
      -------------------------------------------------------------
                  HL-Gap            0.0689574 Eh            1.8764 eV
             Fermi-level           -0.2336274 Eh           -6.3573 eV

     #   Z          covCN         q      C6AA      α(0)
     1   4 Be       1.976     0.358    15.150     8.991
     2   5 B        2.363    -0.005    29.626    10.288
     3   5 B        2.411     0.016    26.594     9.450
     4   6 C        2.896    -0.231    34.212     9.590
     5   1 H        0.926    -0.031     3.653     2.989
     6   1 H        0.140    -0.108    14.425     6.938
     7   1 H        0.190     0.001     7.452     4.982

 Mol. C6AA /au·bohr⁶  :        810.121021
 Mol. C8AA /au·bohr⁸  :      23022.183160
 Mol. α(0) /au        :         53.227416


Wiberg/Mayer (AO) data.
largest (>0.10) Wiberg bond orders for each atom

 ---------------------------------------------------------------------------
     #   Z sym  total        # sym  WBO       # sym  WBO       # sym  WBO
 ---------------------------------------------------------------------------
     1   4 Be   2.063 --     2 B    1.012     3 B    0.907
     2   5 B    2.953 --     4 C    1.497     1 Be   1.012     3 B    0.422
     3   5 B    2.989 --     4 C    1.376     1 Be   0.907     2 B    0.422
                             7 H    0.250
     4   6 C    3.953 --     2 B    1.497     3 B    1.376     5 H    0.965
     5   1 H    0.990 --     4 C    0.965
     6   1 H    0.803 --     7 H    0.723
     7   1 H    0.989 --     6 H    0.723     3 B    0.250
 ---------------------------------------------------------------------------

Topologies differ in total number of bonds
Writing topology from bond orders to xtbtopo.mol

molecular dipole:
                 x           y           z       tot (Debye)
 q only:       -1.536       0.296      -0.981
   full:       -1.484       0.333      -0.796       4.363
molecular quadrupole (traceless):
                xx          xy          yy          xz          yz          zz
 q only:       -2.890       0.778       8.986     -12.005      -0.341      -6.096
  q+dip:        1.279      -1.657       5.543      -8.957      -0.348      -6.822
   full:        1.019       0.044       8.502      -9.250      -2.401      -9.521

           -------------------------------------------------
          |                Geometry Summary                 |
           -------------------------------------------------

      molecular mass/u    :       45.6687973
   center of mass at/Å    :        1.6062837      -0.0262729       1.7356713
  moments of inertia/u·Å² :        0.3324314E+02   0.4315623E+02   0.7639762E+02
rotational constants/cm⁻¹ :        0.5071012E+00   0.3906187E+00   0.2206565E+00

 * 5 selected distances

     #   Z          #   Z                                           value/Å
     1   4 Be       2   5 B                                       1.7034640
     1   4 Be       3   5 B                                       1.7358519 (max)
     2   5 B        4   6 C                                       1.4478984
     3   5 B        4   6 C                                       1.4734607
     4   6 C        5   1 H                                       1.0804536 (min)

 * 3 distinct bonds (by element types)

   Z      Z             #   av. dist./Å        max./Å        min./Å
   4 Be   5 B           2     1.7196579     1.7358519     1.7034640
   1 H    6 C           1     1.0804536     1.0804536     1.0804536
   5 B    6 C           2     1.4606795     1.4734607     1.4478984


optimized geometry written to: xtbopt.xyz


           -------------------------------------------------
          | TOTAL ENERGY               -6.541759905323 Eh   |
          | GRADIENT NORM               0.000671736783 Eh/α |
          | HOMO-LUMO GAP               1.876425166158 eV   |
           -------------------------------------------------
########################################################################
[WARNING] Runtime exception occurred
-2- restart_readRestart: Dimension missmatch in restart file.
-1- restart_readRestart: Number of electron missmatch in restart file.
########################################################################

------------------------------------------------------------------------
 * finished run on 2025/06/07 at 03:27:42.899     
------------------------------------------------------------------------
 total:
 * wall-time:     0 d,  0 h,  0 min,  0.127 sec
 *  cpu-time:     0 d,  0 h,  0 min,  1.705 sec
 * ratio c/w:    13.387 speedup
 SCF:
 * wall-time:     0 d,  0 h,  0 min,  0.008 sec
 *  cpu-time:     0 d,  0 h,  0 min,  0.124 sec
normal termination of xtb
 * ratio c/w:    14.756 speedup
 ANC optimizer:
 * wall-time:     0 d,  0 h,  0 min,  0.116 sec
 *  cpu-time:     0 d,  0 h,  0 min,  1.548 sec
 * ratio c/w:    13.325 speedup

