      -----------------------------------------------------------      
     |                   =====================                   |     
     |                           x T B                           |     
     |                   =====================                   |     
     |                         S. Grimme                         |     
     |          Mulliken Center for Theoretical Chemistry        |     
     |                    University of Bonn                     |     
      -----------------------------------------------------------      

   * xtb version 6.5.1 (conda-forge) compiled by 'runner@Mac-1657629245115.local' on 2022-07-12

   xtb is free software: you can redistribute it and/or modify it under
   the terms of the GNU Lesser General Public License as published by
   the Free Software Foundation, either version 3 of the License, or
   (at your option) any later version.
   
   xtb is distributed in the hope that it will be useful,
   but WITHOUT ANY WARRANTY; without even the implied warranty of
   MERCHANTABILITY or FITNESS FOR A PARTICULAR PURPOSE.  See the
   GNU Lesser General Public License for more details.
   
   Cite this work as:
   * C. Bannwarth, E. Caldeweyher, S. Ehlert, A. Hansen, P. Pracht,
     J. Seibert, S. Spicher, S. Grimme, WIREs Comput. Mol. Sci., 2020, 11,
     e01493. DOI: 10.1002/wcms.1493
   
   for GFN2-xTB:
   * C. Bannwarth, S. Ehlert and S. Grimme., J. Chem. Theory Comput., 2019,
     15, 1652-1671. DOI: 10.1021/acs.jctc.8b01176
   for GFN1-xTB:
   * S. Grimme, C. Bannwarth, P. Shushkov, J. Chem. Theory Comput., 2017,
     13, 1989-2009. DOI: 10.1021/acs.jctc.7b00118
   for GFN0-xTB:
   * P. Pracht, E. Caldeweyher, S. Ehlert, S. Grimme, ChemRxiv, 2019, preprint.
     DOI: 10.26434/chemrxiv.8326202.v1
   for GFN-FF:
   * S. Spicher and S. Grimme, Angew. Chem. Int. Ed., 2020, 59, 15665-15673.
     DOI: 10.1002/anie.202004239
   
   for ALPB and GBSA implicit solvation:
   * S. Ehlert, M. Stahn, S. Spicher, S. Grimme, J. Chem. Theory Comput.,
     2021, 17, 4250-4261. DOI: 10.1021/acs.jctc.1c00471
   
   for DFT-D4:
   * E. Caldeweyher, C. Bannwarth and S. Grimme, J. Chem. Phys., 2017,
     147, 034112. DOI: 10.1063/1.4993215
   * E. Caldeweyher, S. Ehlert, A. Hansen, H. Neugebauer, S. Spicher,
     C. Bannwarth and S. Grimme, J. Chem. Phys., 2019, 150, 154122.
     DOI: 10.1063/1.5090222
   * E. Caldeweyher, J.-M. Mewes, S. Ehlert and S. Grimme, Phys. Chem. Chem. Phys.
     2020, 22, 8499-8512. DOI: 10.1039/D0CP00502A
   
   for sTDA-xTB:
   * S. Grimme and C. Bannwarth, J. Chem. Phys., 2016, 145, 054103.
     DOI: 10.1063/1.4959605
   
   in the mass-spec context:
   * V. Asgeirsson, C. Bauer and S. Grimme, Chem. Sci., 2017, 8, 4879.
     DOI: 10.1039/c7sc00601b
   * J. Koopman and S. Grimme, ACS Omega 2019, 4, 12, 15120-15133.
     DOI: 10.1021/acsomega.9b02011
   
   for metadynamics refer to:
   * S. Grimme, J. Chem. Theory Comput., 2019, 155, 2847-2862
     DOI: 10.1021/acs.jctc.9b00143
   
   for SPH calculations refer to:
   * S. Spicher and S. Grimme, J. Chem. Theory Comput., 2021, 17, 1701-1714
     DOI: 10.1021/acs.jctc.0c01306
   
   with help from (in alphabetical order)
   P. Atkinson, C. Bannwarth, F. Bohle, G. Brandenburg, E. Caldeweyher
   M. Checinski, S. Dohm, S. Ehlert, S. Ehrlich, I. Gerasimov, C. Hölzer
   A. Katbashev, J. Koopman, C. Lavigne, S. Lehtola, F. März, M. Müller,
   F. Musil, H. Neugebauer, J. Pisarek, C. Plett, P. Pracht, F. Pultar,
   J. Seibert, P. Shushkov, S. Spicher, M. Stahn, M. Steiner, T. Strunk,
   J. Stückrath, T. Rose, and J. Unsleber
   
 * started run on 2025/06/07 at 03:27:42.909     

           -------------------------------------------------
          |                Calculation Setup                |
           -------------------------------------------------

          program call               : xtb B2BeH4.xyz --gfn 2 --opt
          coordinate file            : B2BeH4.xyz
          omp threads                :                    16

   ID    Z sym.   atoms
    1    4 Be     1
    2    5 B      2, 3
    3    1 H      4-7

molecular fragmentation (1/2 indicates fragments):
1122222
# atoms in fragment 1/2:     2     5
 fragment masses (1/2) :       19.82       14.84
CMA distance (Bohr)    :   3.461
constraining FC (au)   :  0.0500

           -------------------------------------------------
          |                 G F N 2 - x T B                 |
           -------------------------------------------------

        Reference                      10.1021/acs.jctc.8b01176
      * Hamiltonian:
        H0-scaling (s, p, d)           1.850000    2.230000    2.230000
        zeta-weighting                 0.500000
      * Dispersion:
        s8                             2.700000
        a1                             0.520000
        a2                             5.000000
        s9                             5.000000
      * Repulsion:
        kExp                           1.500000    1.000000
        rExp                           1.000000
      * Coulomb:
        alpha                          2.000000
        third order                    shell-resolved
        anisotropic                    true
        a3                             3.000000
        a5                             4.000000
        cn-shift                       1.200000
        cn-exp                         4.000000
        max-rad                        5.000000


          ...................................................
          :                      SETUP                      :
          :.................................................:
          :  # basis functions                  16          :
          :  # atomic orbitals                  16          :
          :  # shells                           10          :
          :  # electrons                        12          :
          :  max. iterations                   250          :
          :  Hamiltonian                  GFN2-xTB          :
          :  restarted?                      false          :
          :  GBSA solvation                  false          :
          :  PC potential                    false          :
          :  electronic temp.          300.0000000     K    :
          :  accuracy                    1.0000000          :
          :  -> integral cutoff          0.2500000E+02      :
          :  -> integral neglect         0.1000000E-07      :
          :  -> SCF convergence          0.1000000E-05 Eh   :
          :  -> wf. convergence          0.1000000E-03 e    :
          :  Broyden damping             0.4000000          :
          ...................................................

 iter      E             dE          RMSdq      gap      omega  full diag
   1     15.6744657  0.156745E+02  0.256E+01    3.78       0.0  T
   2      0.3659313 -0.153085E+02  0.282E+01    2.01       1.0  T
   3      1.4670023  0.110107E+01  0.252E+01    2.00       1.0  T
   4      0.3721700 -0.109483E+01  0.199E+01    0.85       1.0  T
   5     -2.1484339 -0.252060E+01  0.141E+01    1.19       1.0  T
   6     -3.2815156 -0.113308E+01  0.116E+01    0.74       1.0  T
   7     -3.0243990  0.257117E+00  0.103E+01    1.08       1.0  T
   8     -3.3061383 -0.281739E+00  0.923E+00    1.07       1.0  T
   9     -1.5323751  0.177376E+01  0.172E+01    1.01       1.0  T
  10     -4.0531570 -0.252078E+01  0.579E+00    1.00       1.0  T
  11     -1.0181350  0.303502E+01  0.156E+01    0.98       1.0  T
  12      5.2589196  0.627705E+01  0.192E+01    2.17       1.0  T
  13      2.4699915 -0.278893E+01  0.170E+01    1.76       1.0  T
  14      4.9771221  0.250713E+01  0.190E+01    2.14       1.0  T
  15     -0.0640317 -0.504115E+01  0.154E+01    1.34       1.0  T
  16     -2.6426161 -0.257858E+01  0.135E+01    0.59       1.0  T
  17     -3.9395248 -0.129691E+01  0.911E+00    0.17       1.0  T
  18     -3.9397893 -0.264486E-03  0.911E+00    0.17       1.0  T
  19     -4.0594135 -0.119624E+00  0.838E+00    0.16       1.0  T
  20     -4.0885190 -0.291056E-01  0.820E+00    0.16       1.0  T
  21     -3.9455996  0.142919E+00  0.905E+00    0.17       1.0  T
  22     -4.4360794 -0.490480E+00  0.619E+00    0.11       1.0  T
  23     -4.4327050  0.337449E-02  0.648E+00    0.09       1.0  T
  24     -4.2532388  0.179466E+00  0.733E+00    0.11       1.0  T
  25     -4.4895470 -0.236308E+00  0.577E+00    0.12       1.0  T
  26     -4.2328288  0.256718E+00  0.679E+00    0.15       1.0  T
  27     -4.0316988  0.201130E+00  0.770E+00    0.18       1.0  T
  28     -3.8458781  0.185821E+00  0.862E+00    0.19       1.0  T
  29     -4.2580396 -0.412162E+00  0.584E+00    0.17       1.0  T
  30     -4.3197267 -0.616871E-01  0.505E+00    0.17       1.0  T
  31     -4.4984018 -0.178675E+00  0.464E+00    0.19       1.0  T
  32     -4.4950222  0.337964E-02  0.465E+00    0.19       1.0  T
  33     -4.5184381 -0.234159E-01  0.482E+00    0.19       1.0  T
  34     -4.4728223  0.456158E-01  0.464E+00    0.18       1.0  T
  35     -4.5436030 -0.707808E-01  0.558E+00    0.34       1.0  T
  36     -4.4904851  0.531179E-01  0.567E+00    0.50       1.0  T
  37     -4.4854473  0.503780E-02  0.562E+00    0.50       1.0  T
  38     -4.4794469  0.600037E-02  0.636E+00    0.47       1.0  T
  39     -4.4685956  0.108513E-01  0.722E+00    0.46       1.0  T
  40     -4.4496673  0.189282E-01  0.796E+00    0.52       1.0  T
  41     -4.4480401  0.162726E-02  0.828E+00    0.55       1.0  T
  42     -4.4483092 -0.269146E-03  0.836E+00    0.56       1.0  T
  43     -4.4484629 -0.153643E-03  0.831E+00    0.57       1.0  T
  44     -4.4474635  0.999362E-03  0.817E+00    0.57       1.0  T
  45     -4.4510766 -0.361307E-02  0.814E+00    0.55       1.0  T
  46     -4.4513582 -0.281649E-03  0.814E+00    0.55       1.0  T
  47     -4.4500442  0.131407E-02  0.819E+00    0.55       1.0  T
  48     -4.4438592  0.618493E-02  0.828E+00    0.56       1.0  T
  49     -4.4388720  0.498727E-02  0.801E+00    0.60       1.0  T
  50     -4.4356493  0.322268E-02  0.734E+00    0.65       1.0  T
  51     -4.4396462 -0.399690E-02  0.637E+00    0.69       1.0  T
  52     -4.4498199 -0.101738E-01  0.548E+00    0.70       1.0  T
  53     -4.4638702 -0.140503E-01  0.466E+00    0.71       1.0  T
  54     -4.4764289 -0.125587E-01  0.403E+00    0.71       1.0  T
  55     -4.4862181 -0.978925E-02  0.357E+00    0.71       1.0  T
  56     -4.4947705 -0.855235E-02  0.319E+00    0.71       1.0  T
  57     -4.5035159 -0.874548E-02  0.285E+00    0.71       1.0  T
  58     -4.5134128 -0.989689E-02  0.250E+00    0.71       1.0  T
  59     -4.5246437 -0.112309E-01  0.213E+00    0.69       1.0  T
  60     -4.5360307 -0.113870E-01  0.175E+00    0.68       1.0  T
  61     -4.5457568 -0.972608E-02  0.141E+00    0.66       1.0  T
  62     -4.5527114 -0.695464E-02  0.113E+00    0.64       1.0  T
  63     -4.5570983 -0.438684E-02  0.914E-01    0.63       1.0  T
  64     -4.5599357 -0.283744E-02  0.742E-01    0.62       1.0  T
  65     -4.5620342 -0.209849E-02  0.569E-01    0.61       1.0  T
  66     -4.5634171 -0.138289E-02  0.396E-01    0.60       1.0  T
  67     -4.5640474 -0.630285E-03  0.258E-01    0.60       1.0  T
  68     -4.5642518 -0.204435E-03  0.161E-01    0.59       1.0  T
  69     -4.5643006 -0.487365E-04  0.974E-02    0.59       1.0  T
  70     -4.5643097 -0.915403E-05  0.581E-02    0.59       1.0  T
  71     -4.5643119 -0.223064E-05  0.338E-02    0.59       1.1  T
  72     -4.5643128 -0.874603E-06  0.181E-02    0.59       2.1  T
  73     -4.5643130 -0.176463E-06  0.925E-03    0.59       4.1  T
  74     -4.5643130  0.287125E-07  0.758E-03    0.59       5.0  T
  75     -4.5643132 -0.248864E-06  0.505E-03    0.59       7.5  T
  76     -4.5643134 -0.145563E-06  0.241E-03    0.59      15.7  T
  77     -4.5643134 -0.263833E-07  0.499E-04    0.59      75.8  T
  78     -4.5643134 -0.240413E-08  0.134E-04    0.59     281.3  T

   *** convergence criteria satisfied after 78 iterations ***

         #    Occupation            Energy/Eh            Energy/eV
      -------------------------------------------------------------
         1        2.0000           -0.5557497             -15.1227
         2        2.0000           -0.3493762              -9.5070
         3        2.0000           -0.3108473              -8.4586
         4        2.0000           -0.2373387              -6.4583
         5        2.0000           -0.2315751              -6.3015
         6        2.0000           -0.1863761              -5.0716 (HOMO)
         7        0.0000           -0.1645559              -4.4778 (LUMO)
         8                         -0.1377686              -3.7489
         9                         -0.1160733              -3.1585
        10                         -0.1126667              -3.0658
        11                         -0.0521289              -1.4185
       ...                                ...                  ...
        16                          0.5763582              15.6835
      -------------------------------------------------------------
                  HL-Gap            0.0218202 Eh            0.5938 eV
             Fermi-level           -0.1754660 Eh           -4.7747 eV

 SCC (total)                   0 d,  0 h,  0 min,  0.013 sec
 SCC setup                      ...        0 min,  0.000 sec (  0.399%)
 Dispersion                     ...        0 min,  0.000 sec (  0.968%)
 classical contributions        ...        0 min,  0.000 sec (  0.553%)
 integral evaluation            ...        0 min,  0.000 sec (  0.851%)
 iterations                     ...        0 min,  0.012 sec ( 93.256%)
 molecular gradient             ...        0 min,  0.000 sec (  3.608%)
 printout                       ...        0 min,  0.000 sec (  0.285%)

         :::::::::::::::::::::::::::::::::::::::::::::::::::::
         ::                     SUMMARY                     ::
         :::::::::::::::::::::::::::::::::::::::::::::::::::::
         :: total energy              -4.509690174657 Eh    ::
         :: gradient norm              0.288083561438 Eh/a0 ::
         :: HOMO-LUMO gap              0.593758962326 eV    ::
         ::.................................................::
         :: SCC energy                -4.564313392146 Eh    ::
         :: -> isotropic ES           -0.008114441098 Eh    ::
         :: -> anisotropic ES          0.003124251781 Eh    ::
         :: -> anisotropic XC         -0.025387793079 Eh    ::
         :: -> dispersion             -0.004394963170 Eh    ::
         :: repulsion energy           0.054622833719 Eh    ::
         :: add. restraining           0.000000000000 Eh    ::
         :: total charge               0.000000000000 e     ::
         :::::::::::::::::::::::::::::::::::::::::::::::::::::

      ----------------------------------------------------------- 
     |                   =====================                   |
     |                        A N C O P T                        |
     |                   =====================                   |
     |               Approximate Normal Coordinate               |
     |                Rational Function Optimizer                |
      ----------------------------------------------------------- 

          ...................................................
          :                      SETUP                      :
          :.................................................:
          :   optimization level            normal          :
          :   max. optcycles                   200          :
          :   ANC micro-cycles                  20          :
          :   degrees of freedom                15          :
          :.................................................:
          :   RF solver                   davidson          :
          :   write xtbopt.log                true          :
          :   linear?                        false          :
          :   energy convergence         0.5000000E-05 Eh   :
          :   grad. convergence          0.1000000E-02 Eh/α :
          :   maximium RF displ.         1.0000000          :
          :   Hlow (freq-cutoff)         0.1000000E-01      :
          :   Hmax (freq-cutoff)         5.0000000          :
          :   S6 in model hess.         20.0000000          :
          ...................................................

generating ANC from model Hessian ...
Using Lindh-Hessian (1995)
 Shifting diagonal of input Hessian by    8.5879570028546976E-003
 Lowest  eigenvalues of input Hessian
    0.000000    0.000000    0.000000    0.000000    0.000000    0.000000
    0.010000    0.011225    0.016132    0.024945    0.030108    0.036647
    0.047159    0.061582    0.078736    0.127319    0.202683    0.247243
 Highest eigenvalues
    0.127319    0.202683    0.247243    0.274731    0.300540    0.320099


........................................................................
.............................. CYCLE    1 ..............................
........................................................................
   1     -4.5643134 -0.456431E+01  0.315E-04    0.59       0.0  T
   2     -4.5643134  0.206017E-07  0.141E-03    0.59      26.7  T
   3     -4.5643134 -0.208101E-07  0.268E-04    0.59     141.2  T
   4     -4.5643134  0.453977E-09  0.363E-04    0.59     104.1  T
     SCC iter.                  ...        0 min,  0.001 sec
     gradient                   ...        0 min,  0.001 sec
 * total energy  :    -4.5096902 Eh     change        0.7190204E-09 Eh
   gradient norm :     0.2838518 Eh/α   predicted     0.0000000E+00 (-100.00%)
   displ. norm   :     0.8423259 α      lambda       -0.2280527E+00
   maximum displ.:     0.5303389 α      in ANC's #5, #12, #3, ...

........................................................................
.............................. CYCLE    2 ..............................
........................................................................
   1     -4.6426172 -0.464262E+01  0.526E+00    0.33       0.0  T
   2     -2.3281016  0.231452E+01  0.150E+01    0.25       1.0  T
   3     -4.3056463 -0.197754E+01  0.634E+00    1.03       1.0  T
   4     -4.6494542 -0.343808E+00  0.286E+00    0.65       1.0  T
   5     -4.5629600  0.864943E-01  0.315E+00    0.61       1.0  T
   6     -4.6120289 -0.490690E-01  0.299E+00    0.69       1.0  T
   7     -4.6612987 -0.492698E-01  0.204E+00    0.51       1.0  T
   8     -4.6479429  0.133559E-01  0.184E+00    0.57       1.0  T
   9     -4.6626880 -0.147452E-01  0.166E+00    0.51       1.0  T
  10     -4.6621571  0.530932E-03  0.150E+00    0.52       1.0  T
  11     -4.6648349 -0.267778E-02  0.137E+00    0.51       1.0  T
  12     -4.6662295 -0.139462E-02  0.120E+00    0.50       1.0  T
  13     -4.6694502 -0.322068E-02  0.961E-01    0.49       1.0  T
  14     -4.6731446 -0.369442E-02  0.559E-01    0.46       1.0  T
  15     -4.6741465 -0.100185E-02  0.356E-01    0.45       1.0  T
  16     -4.6747108 -0.564364E-03  0.153E-01    0.44       1.0  T
  17     -4.6748042 -0.933609E-04  0.666E-02    0.43       1.0  T
  18     -4.6748193 -0.151681E-04  0.277E-02    0.43       1.4  T
  19     -4.6748215 -0.216534E-05  0.998E-03    0.43       3.8  T
  20     -4.6748217 -0.159039E-06  0.548E-03    0.43       6.9  T
  21     -4.6748217 -0.726846E-07  0.338E-03    0.43      11.2  T
  22     -4.6748218 -0.415434E-07  0.632E-05    0.43     597.8  T
  23     -4.6748218 -0.128768E-10  0.902E-05    0.43     419.2  T
     SCC iter.                  ...        0 min,  0.003 sec
     gradient                   ...        0 min,  0.000 sec
 * total energy  :    -4.6450988 Eh     change       -0.1354087E+00 Eh
   gradient norm :     0.1345105 Eh/α   predicted    -0.1949295E+00 (  43.96%)
   displ. norm   :     0.7308734 α      lambda       -0.9175482E-01
   maximum displ.:     0.3695911 α      in ANC's #11, #12, #5, ...

........................................................................
.............................. CYCLE    3 ..............................
........................................................................
   1     -4.7529270 -0.475293E+01  0.671E+00    0.24       0.0  T
   2     -4.6809125  0.720145E-01  0.386E+00    0.72       1.0  T
   3     -2.7858797  0.189503E+01  0.132E+01    0.80       1.0  T
   4     -4.2913220 -0.150544E+01  0.943E+00    0.37       1.0  T
   5     -4.1036968  0.187625E+00  0.947E+00    0.47       1.0  T
   6     -4.1542025 -0.505057E-01  0.914E+00    0.45       1.0  T
   7     -4.6979682 -0.543766E+00  0.395E+00    0.63       1.0  T
   8     -4.7147792 -0.168109E-01  0.350E+00    0.53       1.0  T
   9     -4.7324415 -0.176623E-01  0.311E+00    0.49       1.0  T
  10     -4.7495209 -0.170794E-01  0.197E+00    0.40       1.0  T
  11     -4.7595258 -0.100050E-01  0.152E+00    0.36       1.0  T
  12     -4.7349663  0.245595E-01  0.364E+00    0.27       1.0  T
  13     -4.7666255 -0.316592E-01  0.122E+00    0.32       1.0  T
  14     -4.7656761  0.949373E-03  0.880E-01    0.34       1.0  T
  15     -4.7652404  0.435748E-03  0.829E-01    0.32       1.0  T
  16     -4.7656408 -0.400436E-03  0.774E-01    0.33       1.0  T
  17     -4.7665713 -0.930478E-03  0.614E-01    0.33       1.0  T
  18     -4.7671491 -0.577826E-03  0.241E-01    0.34       1.0  T
  19     -4.7671541 -0.493894E-05  0.205E-01    0.34       1.0  T
  20     -4.7671968 -0.427543E-04  0.114E-01    0.34       1.0  T
  21     -4.7672114 -0.145875E-04  0.625E-02    0.34       1.0  T
  22     -4.7672170 -0.556808E-05  0.345E-02    0.34       1.1  T
  23     -4.7672190 -0.203311E-05  0.230E-02    0.34       1.6  T
  24     -4.7672205 -0.147519E-05  0.109E-02    0.34       3.5  T
  25     -4.7672208 -0.308052E-06  0.116E-03    0.34      32.6  T
  26     -4.7672208 -0.642368E-08  0.132E-03    0.34      28.5  T
  27     -4.7672208 -0.520354E-08  0.330E-04    0.34     114.4  T
  28     -4.7672208 -0.505368E-09  0.835E-05    0.34     452.8  T
     SCC iter.                  ...        0 min,  0.003 sec
     gradient                   ...        0 min,  0.000 sec
 * total energy  :    -4.7148010 Eh     change       -0.6970212E-01 Eh
   gradient norm :     0.0841606 Eh/α   predicted    -0.7038403E-01 (   0.98%)
   displ. norm   :     0.7624042 α      lambda       -0.5947738E-01
   maximum displ.:     0.3394854 α      in ANC's #5, #9, #13, ...

........................................................................
.............................. CYCLE    4 ..............................
........................................................................
   1     -4.8271163 -0.482712E+01  0.636E+00    0.77       0.0  T
   2     -4.6261884  0.200928E+00  0.541E+00    0.80       1.0  T
   3     -3.7921508  0.834038E+00  0.918E+00    0.85       1.0  T
   4     -4.6902768 -0.898126E+00  0.522E+00    0.77       1.0  T
   5     -4.7255788 -0.353020E-01  0.407E+00    0.79       1.0  T
   6     -4.8650166 -0.139438E+00  0.132E+00    0.70       1.0  T
   7     -4.8598300  0.518661E-02  0.126E+00    0.69       1.0  T
   8     -4.8597204  0.109661E-03  0.795E-01    0.70       1.0  T
   9     -4.8644841 -0.476371E-02  0.506E-01    0.71       1.0  T
  10     -4.8646606 -0.176515E-03  0.441E-01    0.71       1.0  T
  11     -4.8660395 -0.137892E-02  0.142E-01    0.72       1.0  T
  12     -4.8660618 -0.222733E-04  0.125E-01    0.72       1.0  T
  13     -4.8661221 -0.602853E-04  0.346E-02    0.72       1.1  T
  14     -4.8661269 -0.485361E-05  0.158E-02    0.72       2.4  T
  15     -4.8661278 -0.841215E-06  0.235E-03    0.72      16.1  T
  16     -4.8661278  0.367971E-09  0.950E-04    0.72      39.8  T
  17     -4.8661278 -0.353053E-08  0.219E-04    0.72     172.5  T
     SCC iter.                  ...        0 min,  0.002 sec
     gradient                   ...        0 min,  0.000 sec
 * total energy  :    -4.7431576 Eh     change       -0.2835664E-01 Eh
   gradient norm :     0.2109115 Eh/α   predicted    -0.4702460E-01 (  65.83%)
   displ. norm   :     0.5020228 α      lambda       -0.7094277E-01
   maximum displ.:     0.2381921 α      in ANC's #3, #13, #5, ...

........................................................................
.............................. CYCLE    5 ..............................
........................................................................
   1     -4.8657510 -0.486575E+01  0.194E+00    0.96       0.0  T
   2     -4.8507604  0.149907E-01  0.168E+00    0.96       1.0  T
   3     -4.7222213  0.128539E+00  0.313E+00    0.94       1.0  T
   4     -4.8657422 -0.143521E+00  0.472E-01    0.92       1.0  T
   5     -4.8662852 -0.543024E-03  0.306E-01    0.92       1.0  T
   6     -4.8666592 -0.374026E-03  0.226E-01    0.92       1.0  T
   7     -4.8663648  0.294371E-03  0.192E-01    0.92       1.0  T
   8     -4.8666371 -0.272235E-03  0.779E-02    0.92       1.0  T
   9     -4.8666937 -0.566329E-04  0.124E-02    0.92       3.0  T
  10     -4.8666936  0.134759E-06  0.698E-03    0.92       5.4  T
  11     -4.8666938 -0.205859E-06  0.382E-03    0.92       9.9  T
  12     -4.8666938 -0.823414E-09  0.123E-03    0.92      30.7  T
  13     -4.8666938 -0.735137E-08  0.723E-04    0.92      52.3  T
  14     -4.8666938 -0.599122E-08  0.864E-05    0.92     437.5  T
     SCC iter.                  ...        0 min,  0.002 sec
     gradient                   ...        0 min,  0.000 sec
 * total energy  :    -4.7945641 Eh     change       -0.5140653E-01 Eh
   gradient norm :     0.0891548 Eh/α   predicted    -0.4441114E-01 ( -13.61%)
   displ. norm   :     0.9157445 α      lambda       -0.7637770E-01
   maximum displ.:     0.5161469 α      in ANC's #3, #13, #2, ...

........................................................................
.............................. CYCLE    6 ..............................
........................................................................
   1     -4.8913320 -0.489133E+01  0.518E+00    1.62       0.0  T
   2     -4.6767091  0.214623E+00  0.555E+00    1.69       1.0  T
   3     -4.7457427 -0.690335E-01  0.587E+00    1.70       1.0  T
   4     -4.8419866 -0.962440E-01  0.266E+00    1.57       1.0  T
   5     -4.8553003 -0.133137E-01  0.225E+00    1.59       1.0  T
   6     -4.9219921 -0.666918E-01  0.604E-01    1.61       1.0  T
   7     -4.9217884  0.203741E-03  0.526E-01    1.61       1.0  T
   8     -4.9238085 -0.202014E-02  0.127E-01    1.61       1.0  T
   9     -4.9238235 -0.150253E-04  0.681E-02    1.61       1.0  T
  10     -4.9238404 -0.168184E-04  0.221E-02    1.61       1.7  T
  11     -4.9238403  0.927030E-07  0.160E-02    1.61       2.4  T
  12     -4.9238422 -0.189251E-05  0.524E-03    1.61       7.2  T
  13     -4.9238424 -0.249924E-06  0.195E-03    1.61      19.4  T
  14     -4.9238424 -0.359083E-07  0.342E-04    1.61     110.6  T
  15     -4.9238424 -0.680078E-09  0.985E-05    1.61     383.8  T
     SCC iter.                  ...        0 min,  0.002 sec
     gradient                   ...        0 min,  0.000 sec
 * total energy  :    -4.8615274 Eh     change       -0.6696327E-01 Eh
   gradient norm :     0.1154230 Eh/α   predicted    -0.7021356E-01 (   4.85%)
   displ. norm   :     0.8356209 α      lambda       -0.5853548E-01
   maximum displ.:     0.5293730 α      in ANC's #3, #2, #6, ...

........................................................................
.............................. CYCLE    7 ..............................
........................................................................
   1     -4.8949320 -0.489493E+01  0.548E+00    1.96       0.0  T
   2     -4.3914095  0.503522E+00  0.776E+00    2.11       1.0  T
   3     -4.7749429 -0.383533E+00  0.575E+00    1.88       1.0  T
   4     -4.6002793  0.174664E+00  0.586E+00    2.13       1.0  T
   5     -4.9331777 -0.332898E+00  0.173E+00    1.81       1.0  T
   6     -4.9574820 -0.243043E-01  0.857E-01    1.87       1.0  T
   7     -4.9545579  0.292413E-02  0.839E-01    1.86       1.0  T
   8     -4.9579197 -0.336176E-02  0.230E-01    1.90       1.0  T
   9     -4.9578650  0.546763E-04  0.102E-01    1.90       1.0  T
  10     -4.9579333 -0.683062E-04  0.356E-02    1.90       1.1  T
  11     -4.9579397 -0.638709E-05  0.131E-02    1.90       2.9  T
  12     -4.9579396  0.103349E-06  0.857E-03    1.90       4.4  T
  13     -4.9579403 -0.697757E-06  0.180E-03    1.90      21.0  T
  14     -4.9579403 -0.211461E-07  0.690E-04    1.90      54.8  T
  15     -4.9579403 -0.251963E-08  0.418E-04    1.90      90.4  T
     SCC iter.                  ...        0 min,  0.002 sec
     gradient                   ...        0 min,  0.000 sec
 * total energy  :    -4.8923080 Eh     change       -0.3078063E-01 Eh
   gradient norm :     0.1196775 Eh/α   predicted    -0.4970429E-01 (  61.48%)
   displ. norm   :     0.4765348 α      lambda       -0.2828715E-01
   maximum displ.:     0.2527167 α      in ANC's #2, #5, #7, ...

........................................................................
.............................. CYCLE    8 ..............................
........................................................................
   1     -4.9808724 -0.498087E+01  0.185E+00    2.19       0.0  T
   2     -4.8210349  0.159838E+00  0.371E+00    1.72       1.0  T
   3     -4.9502716 -0.129237E+00  0.196E+00    2.32       1.0  T
   4     -4.9852137 -0.349420E-01  0.306E-01    2.07       1.0  T
   5     -4.9850481  0.165531E-03  0.267E-01    2.07       1.0  T
   6     -4.9853666 -0.318511E-03  0.177E-01    2.07       1.0  T
   7     -4.9854470 -0.803854E-04  0.482E-02    2.09       1.0  T
   8     -4.9854410  0.601271E-05  0.295E-02    2.09       1.3  T
   9     -4.9854473 -0.625359E-05  0.135E-02    2.09       2.8  T
  10     -4.9854487 -0.147335E-05  0.284E-03    2.09      13.3  T
  11     -4.9854488 -0.654919E-07  0.977E-04    2.09      38.7  T
  12     -4.9854488 -0.864881E-09  0.416E-04    2.09      90.8  T
     SCC iter.                  ...        0 min,  0.001 sec
     gradient                   ...        0 min,  0.000 sec
 * total energy  :    -4.9129924 Eh     change       -0.2068440E-01 Eh
   gradient norm :     0.0982171 Eh/α   predicted    -0.1735537E-01 ( -16.09%)
   displ. norm   :     0.6675447 α      lambda       -0.4507609E-01
   maximum displ.:     0.3538233 α      in ANC's #5, #1, #11, ...

........................................................................
.............................. CYCLE    9 ..............................
........................................................................
   1     -4.9968237 -0.499682E+01  0.198E+00    2.27       0.0  T
   2     -4.6308408  0.365983E+00  0.506E+00    1.58       1.0  T
   3     -4.9422793 -0.311438E+00  0.241E+00    2.57       1.0  T
   4     -5.0017104 -0.594312E-01  0.805E-01    2.19       1.0  T
   5     -5.0057070 -0.399651E-02  0.443E-01    2.13       1.0  T
   6     -5.0063325 -0.625583E-03  0.262E-01    2.12       1.0  T
   7     -5.0064072 -0.746788E-04  0.172E-01    2.12       1.0  T
   8     -5.0064840 -0.767380E-04  0.131E-01    2.12       1.0  T
   9     -5.0065759 -0.919571E-04  0.443E-02    2.12       1.0  T
  10     -5.0065885 -0.125637E-04  0.108E-02    2.12       3.5  T
  11     -5.0065896 -0.112041E-05  0.313E-03    2.11      12.1  T
  12     -5.0065896 -0.138865E-07  0.177E-03    2.11      21.3  T
  13     -5.0065896 -0.145955E-07  0.275E-04    2.11     137.2  T
  14     -5.0065896 -0.451204E-10  0.104E-04    2.11     364.2  T
     SCC iter.                  ...        0 min,  0.002 sec
     gradient                   ...        0 min,  0.001 sec
 * total energy  :    -4.9223369 Eh     change       -0.9344472E-02 Eh
   gradient norm :     0.1230121 Eh/α   predicted    -0.3258136E-01 ( 248.67%)
   displ. norm   :     0.4489490 α      lambda       -0.3897614E-01
   maximum displ.:     0.2113689 α      in ANC's #9, #3, #6, ...

........................................................................
.............................. CYCLE   10 ..............................
........................................................................
   1     -5.0402117 -0.504021E+01  0.233E+00    2.10       0.0  T
   2     -5.0261631  0.140486E-01  0.172E+00    2.08       1.0  T
   3     -5.0266791 -0.516042E-03  0.196E+00    2.06       1.0  T
   4     -5.0067484  0.199307E-01  0.176E+00    2.34       1.0  T
   5     -5.0452293 -0.384810E-01  0.150E-01    2.11       1.0  T
   6     -5.0452739 -0.445694E-04  0.955E-02    2.09       1.0  T
   7     -5.0453056 -0.317360E-04  0.379E-02    2.10       1.0  T
   8     -5.0453081 -0.249632E-05  0.179E-02    2.10       2.1  T
   9     -5.0453105 -0.238522E-05  0.418E-03    2.10       9.0  T
  10     -5.0453105 -0.186072E-07  0.226E-03    2.10      16.7  T
  11     -5.0453106 -0.227215E-07  0.480E-04    2.10      78.7  T
  12     -5.0453106 -0.852689E-09  0.173E-04    2.10     218.0  T
     SCC iter.                  ...        0 min,  0.002 sec
     gradient                   ...        0 min,  0.000 sec
 * total energy  :    -4.9391861 Eh     change       -0.1684918E-01 Eh
   gradient norm :     0.0519639 Eh/α   predicted    -0.2341600E-01 (  38.97%)
   displ. norm   :     0.5474701 α      lambda       -0.1726614E-01
   maximum displ.:     0.2647298 α      in ANC's #3, #1, #5, ...

........................................................................
.............................. CYCLE   11 ..............................
........................................................................
   1     -5.0239391 -0.502394E+01  0.193E+00    1.73       0.0  T
   2     -5.0232418  0.697274E-03  0.128E+00    1.77       1.0  T
   3     -4.9818988  0.413430E-01  0.218E+00    1.52       1.0  T
   4     -4.9855331 -0.363427E-02  0.168E+00    2.04       1.0  T
   5     -5.0228069 -0.372738E-01  0.488E-01    1.71       1.0  T
   6     -5.0247168 -0.190994E-02  0.114E-01    1.75       1.0  T
   7     -5.0247275 -0.106466E-04  0.640E-02    1.76       1.0  T
   8     -5.0247370 -0.948908E-05  0.217E-02    1.76       1.7  T
   9     -5.0247344  0.252760E-05  0.224E-02    1.76       1.7  T
  10     -5.0247393 -0.489374E-05  0.546E-03    1.76       6.9  T
  11     -5.0247396 -0.268220E-06  0.104E-03    1.76      36.3  T
  12     -5.0247396 -0.396552E-08  0.394E-04    1.76      96.0  T
  13     -5.0247396 -0.192062E-09  0.144E-04    1.76     263.2  T
     SCC iter.                  ...        0 min,  0.002 sec
     gradient                   ...        0 min,  0.000 sec
 * total energy  :    -4.9396014 Eh     change       -0.4153653E-03 Eh
   gradient norm :     0.0680381 Eh/α   predicted    -0.1122060E-01 (2601.38%)
   displ. norm   :     0.3576831 α      lambda       -0.1473238E-01
   maximum displ.:     0.2115175 α      in ANC's #4, #6, #7, ...

........................................................................
.............................. CYCLE   12 ..............................
........................................................................
   1     -5.0177221 -0.501772E+01  0.106E+00    1.82       0.0  T
   2     -4.9973093  0.204128E-01  0.135E+00    1.61       1.0  T
   3     -4.9887994  0.850991E-02  0.164E+00    2.06       1.0  T
   4     -5.0169825 -0.281832E-01  0.458E-01    1.81       1.0  T
   5     -5.0182237 -0.124118E-02  0.191E-01    1.80       1.0  T
   6     -5.0184250 -0.201247E-03  0.121E-01    1.80       1.0  T
   7     -5.0185122 -0.872009E-04  0.380E-02    1.79       1.0  T
   8     -5.0185192 -0.706439E-05  0.198E-02    1.79       1.9  T
   9     -5.0185228 -0.355833E-05  0.250E-03    1.79      15.1  T
  10     -5.0185228  0.259029E-08  0.175E-03    1.79      21.6  T
  11     -5.0185228 -0.160561E-07  0.221E-04    1.79     171.2  T
  12     -5.0185228 -0.156602E-09  0.826E-05    1.79     457.8  T
     SCC iter.                  ...        0 min,  0.002 sec
     gradient                   ...        0 min,  0.000 sec
 * total energy  :    -4.9454632 Eh     change       -0.5861755E-02 Eh
   gradient norm :     0.0394095 Eh/α   predicted    -0.8308599E-02 (  41.74%)
   displ. norm   :     0.3447775 α      lambda       -0.8465366E-02
   maximum displ.:     0.1829606 α      in ANC's #6, #3, #2, ...

........................................................................
.............................. CYCLE   13 ..............................
........................................................................
   1     -5.0547102 -0.505471E+01  0.141E+00    1.85       0.0  T
   2     -5.0399570  0.147533E-01  0.123E+00    1.66       1.0  T
   3     -4.9878895  0.520675E-01  0.251E+00    2.14       1.0  T
   4     -5.0524349 -0.645453E-01  0.735E-01    1.86       1.0  T
   5     -5.0552748 -0.283993E-02  0.210E-01    1.84       1.0  T
   6     -5.0555960 -0.321218E-03  0.111E-01    1.83       1.0  T
   7     -5.0556181 -0.220916E-04  0.445E-02    1.83       1.0  T
   8     -5.0556111  0.699483E-05  0.293E-02    1.83       1.3  T
   9     -5.0556184 -0.729419E-05  0.530E-03    1.83       7.1  T
  10     -5.0556183  0.563173E-07  0.479E-03    1.83       7.9  T
  11     -5.0556185 -0.194653E-06  0.432E-04    1.83      87.6  T
  12     -5.0556185 -0.151327E-08  0.140E-04    1.83     269.4  T
     SCC iter.                  ...        0 min,  0.001 sec
     gradient                   ...        0 min,  0.000 sec
 * total energy  :    -4.9475750 Eh     change       -0.2111817E-02 Eh
   gradient norm :     0.0427849 Eh/α   predicted    -0.4735828E-02 ( 124.25%)
   displ. norm   :     0.4361048 α      lambda       -0.7434562E-02
   maximum displ.:     0.3261294 α      in ANC's #1, #4, #13, ...

........................................................................
.............................. CYCLE   14 ..............................
........................................................................
   1     -5.0444952 -0.504450E+01  0.199E+00    1.57       0.0  T
   2     -5.0433206  0.117458E-02  0.134E+00    1.62       1.0  T
   3     -4.8717333  0.171587E+00  0.398E+00    1.33       1.0  T
   4     -5.0361649 -0.164432E+00  0.105E+00    1.68       1.0  T
   5     -5.0444275 -0.826266E-02  0.285E-01    1.60       1.0  T
   6     -5.0449029 -0.475410E-03  0.138E-01    1.62       1.0  T
   7     -5.0448821  0.208211E-04  0.764E-02    1.64       1.0  T
   8     -5.0449324 -0.503225E-04  0.204E-02    1.63       1.9  T
   9     -5.0449296  0.285126E-05  0.229E-02    1.63       1.7  T
  10     -5.0449342 -0.458439E-05  0.774E-03    1.63       4.9  T
  11     -5.0449344 -0.266646E-06  0.458E-03    1.63       8.2  T
  12     -5.0449346 -0.111284E-06  0.234E-03    1.63      16.2  T
  13     -5.0449346 -0.316419E-07  0.247E-04    1.63     153.2  T
  14     -5.0449346 -0.220783E-09  0.590E-05    1.63     641.1  T
     SCC iter.                  ...        0 min,  0.002 sec
     gradient                   ...        0 min,  0.000 sec
 * total energy  :    -4.9519629 Eh     change       -0.4387924E-02 Eh
   gradient norm :     0.0277961 Eh/α   predicted    -0.4424261E-02 (   0.83%)
   displ. norm   :     0.4899323 α      lambda       -0.4700505E-02
   maximum displ.:     0.2984828 α      in ANC's #4, #1, #6, ...

........................................................................
.............................. CYCLE   15 ..............................
........................................................................
   1     -5.0309605 -0.503096E+01  0.205E+00    1.38       0.0  T
   2     -5.0302047  0.755867E-03  0.138E+00    1.37       1.0  T
   3     -4.9642018  0.660029E-01  0.261E+00    1.71       1.0  T
   4     -5.0125066 -0.483049E-01  0.133E+00    1.28       1.0  T
   5     -5.0308053 -0.182986E-01  0.340E-01    1.45       1.0  T
   6     -5.0313986 -0.593347E-03  0.131E-01    1.44       1.0  T
   7     -5.0314341 -0.354807E-04  0.401E-02    1.44       1.0  T
   8     -5.0314361 -0.200237E-05  0.338E-02    1.44       1.1  T
   9     -5.0314442 -0.814320E-05  0.725E-03    1.44       5.2  T
  10     -5.0314446 -0.356271E-06  0.265E-03    1.44      14.3  T
  11     -5.0314447 -0.627879E-07  0.555E-04    1.44      68.1  T
  12     -5.0314447 -0.139814E-08  0.130E-04    1.44     291.2  T
     SCC iter.                  ...        0 min,  0.002 sec
     gradient                   ...        0 min,  0.000 sec
 * total energy  :    -4.9539119 Eh     change       -0.1948977E-02 Eh
   gradient norm :     0.0350767 Eh/α   predicted    -0.2914393E-02 (  49.53%)
   displ. norm   :     0.1920310 α      lambda       -0.3095888E-02
   maximum displ.:     0.1465683 α      in ANC's #3, #5, #4, ...

........................................................................
.............................. CYCLE   16 ..............................
........................................................................
   1     -5.0383117 -0.503831E+01  0.682E-01    1.45       0.0  T
   2     -5.0352249  0.308675E-02  0.673E-01    1.38       1.0  T
   3     -5.0269189  0.830597E-02  0.110E+00    1.54       1.0  T
   4     -5.0384431 -0.115241E-01  0.629E-02    1.43       1.0  T
   5     -5.0384494 -0.629568E-05  0.459E-02    1.44       1.0  T
   6     -5.0384417  0.771187E-05  0.459E-02    1.44       1.0  T
   7     -5.0384509 -0.920518E-05  0.749E-03    1.44       5.0  T
   8     -5.0384509 -0.661136E-07  0.361E-03    1.44      10.5  T
   9     -5.0384510 -0.759483E-07  0.113E-03    1.44      33.6  T
  10     -5.0384510 -0.803486E-08  0.194E-04    1.44     194.8  T
  11     -5.0384510 -0.278444E-10  0.961E-05    1.44     393.3  T
     SCC iter.                  ...        0 min,  0.001 sec
     gradient                   ...        0 min,  0.000 sec
 * total energy  :    -4.9562583 Eh     change       -0.2346362E-02 Eh
   gradient norm :     0.0190723 Eh/α   predicted    -0.1605028E-02 ( -31.60%)
   displ. norm   :     0.5332105 α      lambda       -0.5270938E-02
   maximum displ.:     0.3322178 α      in ANC's #3, #6, #5, ...

........................................................................
.............................. CYCLE   17 ..............................
........................................................................
   1     -5.0506406 -0.505064E+01  0.229E+00    1.20       0.0  T
   2     -5.0498271  0.813545E-03  0.160E+00    1.24       1.0  T
   3     -4.7750610  0.274766E+00  0.538E+00    0.90       1.0  T
   4     -5.0506932 -0.275632E+00  0.210E-01    1.22       1.0  T
   5     -5.0507824 -0.892376E-04  0.143E-01    1.24       1.0  T
   6     -5.0507848 -0.238616E-05  0.120E-01    1.24       1.0  T
   7     -5.0508413 -0.564639E-04  0.328E-02    1.24       1.2  T
   8     -5.0508481 -0.687977E-05  0.825E-03    1.24       4.6  T
   9     -5.0508481  0.435430E-07  0.457E-03    1.24       8.3  T
  10     -5.0508482 -0.668006E-07  0.257E-03    1.24      14.7  T
  11     -5.0508482 -0.282449E-07  0.146E-03    1.24      25.8  T
  12     -5.0508482 -0.683639E-08  0.928E-04    1.24      40.7  T
  13     -5.0508482 -0.417557E-08  0.339E-04    1.24     111.6  T
     SCC iter.                  ...        0 min,  0.002 sec
     gradient                   ...        0 min,  0.000 sec
 * total energy  :    -4.9592416 Eh     change       -0.2983272E-02 Eh
   gradient norm :     0.0299563 Eh/α   predicted    -0.3384763E-02 (  13.46%)
   displ. norm   :     0.5383200 α      lambda       -0.5538643E-02
   maximum displ.:     0.3067476 α      in ANC's #6, #3, #4, ...

........................................................................
.............................. CYCLE   18 ..............................
........................................................................
   1     -5.0484618 -0.504846E+01  0.198E+00    1.15       0.0  T
   2     -5.0467587  0.170313E-02  0.132E+00    1.12       1.0  T
   3     -4.9489894  0.977693E-01  0.323E+00    1.43       1.0  T
   4     -5.0486110 -0.996217E-01  0.180E-01    1.16       1.0  T
   5     -5.0486323 -0.212458E-04  0.146E-01    1.16       1.0  T
   6     -5.0486553 -0.230237E-04  0.106E-01    1.16       1.0  T
   7     -5.0486854 -0.300654E-04  0.183E-02    1.16       2.1  T
   8     -5.0486851  0.266504E-06  0.941E-03    1.16       4.0  T
   9     -5.0486855 -0.435072E-06  0.298E-03    1.16      12.7  T
  10     -5.0486856 -0.239296E-07  0.117E-03    1.16      32.4  T
  11     -5.0486856 -0.870450E-08  0.322E-04    1.16     117.4  T
  12     -5.0486856 -0.508980E-09  0.500E-05    1.16     756.3  T
     SCC iter.                  ...        0 min,  0.001 sec
     gradient                   ...        0 min,  0.000 sec
 * total energy  :    -4.9623723 Eh     change       -0.3130773E-02 Eh
   gradient norm :     0.0175556 Eh/α   predicted    -0.3571837E-02 (  14.09%)
   displ. norm   :     0.5087477 α      lambda       -0.3386914E-02
   maximum displ.:     0.3444441 α      in ANC's #3, #6, #5, ...

........................................................................
.............................. CYCLE   19 ..............................
........................................................................
   1     -5.0500009 -0.505000E+01  0.194E+00    1.08       0.0  T
   2     -5.0499370  0.639127E-04  0.130E+00    1.07       1.0  T
   3     -5.0314306  0.185064E-01  0.145E+00    1.22       1.0  T
   4     -5.0411976 -0.976703E-02  0.994E-01    1.02       1.0  T
   5     -5.0502092 -0.901160E-02  0.159E-01    1.08       1.0  T
   6     -5.0502759 -0.667015E-04  0.672E-02    1.09       1.0  T
   7     -5.0502668  0.915682E-05  0.449E-02    1.09       1.0  T
   8     -5.0502785 -0.117429E-04  0.146E-02    1.09       2.6  T
   9     -5.0502797 -0.116696E-05  0.260E-03    1.09      14.6  T
  10     -5.0502797 -0.280208E-07  0.463E-04    1.09      81.6  T
  11     -5.0502797  0.570849E-09  0.397E-04    1.09      95.1  T
     SCC iter.                  ...        0 min,  0.001 sec
     gradient                   ...        0 min,  0.000 sec
 * total energy  :    -4.9635798 Eh     change       -0.1207467E-02 Eh
   gradient norm :     0.0306731 Eh/α   predicted    -0.2131770E-02 (  76.55%)
   displ. norm   :     0.2488610 α      lambda       -0.3029867E-02
   maximum displ.:     0.1789133 α      in ANC's #1, #4, #3, ...

........................................................................
.............................. CYCLE   20 ..............................
........................................................................
   1     -5.0605431 -0.506054E+01  0.147E+00    1.10       0.0  T
   2     -5.0604903  0.527578E-04  0.958E-01    1.11       1.0  T
   3     -5.0561692  0.432110E-02  0.746E-01    1.07       1.0  T
   4     -5.0589396 -0.277042E-02  0.437E-01    1.14       1.0  T
   5     -5.0601547 -0.121503E-02  0.304E-01    1.09       1.0  T
   6     -5.0606554 -0.500740E-03  0.993E-02    1.10       1.0  T
   7     -5.0607263 -0.708871E-04  0.107E-02    1.10       3.5  T
   8     -5.0607269 -0.648555E-06  0.263E-03    1.10      14.4  T
   9     -5.0607269 -0.553619E-08  0.430E-04    1.10      87.8  T
  10     -5.0607269 -0.587085E-09  0.225E-04    1.10     168.1  T
     SCC iter.                  ...        0 min,  0.001 sec
     gradient                   ...        0 min,  0.000 sec
 * total energy  :    -4.9654851 Eh     change       -0.1905305E-02 Eh
   gradient norm :     0.0194202 Eh/α   predicted    -0.1608754E-02 ( -15.56%)
   displ. norm   :     0.5768597 α      lambda       -0.4627214E-02
   maximum displ.:     0.3267059 α      in ANC's #3, #6, #5, ...
 * RMSD in coord.:     1.9837845 α      energy gain  -0.4557949E+00 Eh

generating ANC from model Hessian ...
Using Lindh-Hessian (1995)
 Shifting diagonal of input Hessian by    1.0309049922252084E-002
 Lowest  eigenvalues of input Hessian
    0.010000    0.010154    0.010194    0.000000    0.000000    0.000000
    0.000000    0.000000    0.000000    0.010347    0.010750    0.011374
    0.012753    0.023980    0.070812    0.084983    0.234187    0.454895
 Highest eigenvalues
    0.084983    0.234187    0.454895    0.498992    0.838753    0.986824


........................................................................
.............................. CYCLE   21 ..............................
........................................................................
   1     -5.0395501 -0.503955E+01  0.279E+00    0.96       0.0  T
   2     -5.0220536  0.174965E-01  0.209E+00    1.09       1.0  T
   3     -4.5719967  0.450057E+00  0.730E+00    0.66       1.0  T
   4     -5.0305323 -0.458536E+00  0.107E+00    1.02       1.0  T
   5     -5.0376229 -0.709052E-02  0.633E-01    1.03       1.0  T
   6     -5.0401492 -0.252631E-02  0.353E-01    1.00       1.0  T
   7     -5.0405603 -0.411160E-03  0.188E-01    0.98       1.0  T
   8     -5.0407137 -0.153387E-03  0.104E-01    0.98       1.0  T
   9     -5.0407994 -0.856785E-04  0.222E-02    0.99       1.7  T
  10     -5.0408013 -0.192791E-05  0.543E-03    0.99       7.0  T
  11     -5.0408012  0.842855E-07  0.524E-03    0.99       7.2  T
  12     -5.0408014 -0.211636E-06  0.794E-04    0.99      47.6  T
  13     -5.0408014 -0.458291E-10  0.331E-04    0.99     114.0  T
     SCC iter.                  ...        0 min,  0.002 sec
     gradient                   ...        0 min,  0.000 sec
 * total energy  :    -4.9641103 Eh     change        0.1374822E-02 Eh
   gradient norm :     0.0489763 Eh/α   predicted     0.0000000E+00 (-100.00%)
   displ. norm   :     0.4062772 α      lambda       -0.7475063E-02
   maximum displ.:     0.3313394 α      in ANC's #7, #6, #11, ...

........................................................................
.............................. CYCLE   22 ..............................
........................................................................
   1     -5.0452486 -0.504525E+01  0.196E+00    1.02       0.0  T
   2     -5.0398056  0.544297E-02  0.175E+00    0.96       1.0  T
   3     -4.9895814  0.502242E-01  0.254E+00    1.19       1.0  T
   4     -5.0454553 -0.558739E-01  0.261E-01    1.00       1.0  T
   5     -5.0454137  0.416361E-04  0.228E-01    1.00       1.0  T
   6     -5.0454086  0.502674E-05  0.156E-01    1.01       1.0  T
   7     -5.0456092 -0.200544E-03  0.292E-02    1.01       1.3  T
   8     -5.0456139 -0.468129E-05  0.108E-02    1.01       3.5  T
   9     -5.0456143 -0.429800E-06  0.258E-03    1.01      14.7  T
  10     -5.0456143 -0.807124E-08  0.149E-03    1.01      25.3  T
  11     -5.0456143 -0.868521E-09  0.287E-04    1.01     131.6  T
  12     -5.0456143  0.142381E-09  0.224E-04    1.01     169.1  T
     SCC iter.                  ...        0 min,  0.001 sec
     gradient                   ...        0 min,  0.000 sec
 * total energy  :    -4.9641923 Eh     change       -0.8204814E-04 Eh
   gradient norm :     0.0310524 Eh/α   predicted    -0.4354452E-02 (5207.19%)
   displ. norm   :     0.3869078 α      lambda       -0.1099483E-01
   maximum displ.:     0.2958867 α      in ANC's #7, #8, #11, ...

........................................................................
.............................. CYCLE   23 ..............................
........................................................................
   1     -5.0703282 -0.507033E+01  0.203E+00    1.09       0.0  T
   2     -5.0562477  0.140804E-01  0.176E+00    0.99       1.0  T
   3     -4.9957115  0.605362E-01  0.323E+00    1.30       1.0  T
   4     -5.0688153 -0.731038E-01  0.564E-01    1.09       1.0  T
   5     -5.0707202 -0.190493E-02  0.249E-01    1.08       1.0  T
   6     -5.0709139 -0.193757E-03  0.176E-01    1.07       1.0  T
   7     -5.0710238 -0.109886E-03  0.617E-02    1.06       1.0  T
   8     -5.0710476 -0.237358E-04  0.101E-02    1.07       3.8  T
   9     -5.0710478 -0.257342E-06  0.308E-03    1.07      12.3  T
  10     -5.0710478 -0.475513E-08  0.131E-03    1.07      28.9  T
  11     -5.0710478 -0.593994E-08  0.282E-04    1.07     133.8  T
  12     -5.0710478 -0.125085E-09  0.192E-04    1.07     196.4  T
     SCC iter.                  ...        0 min,  0.001 sec
     gradient                   ...        0 min,  0.000 sec
 * total energy  :    -4.9664504 Eh     change       -0.2258063E-02 Eh
   gradient norm :     0.0395069 Eh/α   predicted    -0.6320360E-02 ( 179.90%)
   displ. norm   :     0.2072093 α      lambda       -0.4552081E-02
   maximum displ.:     0.1539662 α      in ANC's #4, #11, #12, ...

........................................................................
.............................. CYCLE   24 ..............................
........................................................................
   1     -5.0515615 -0.505156E+01  0.652E-01    1.01       0.0  T
   2     -5.0477255  0.383607E-02  0.690E-01    1.06       1.0  T
   3     -5.0400896  0.763583E-02  0.128E+00    0.95       1.0  T
   4     -5.0517826 -0.116930E-01  0.764E-02    1.02       1.0  T
   5     -5.0517833 -0.658695E-06  0.526E-02    1.02       1.0  T
   6     -5.0517818  0.149428E-05  0.180E-02    1.02       2.1  T
   7     -5.0517836 -0.181698E-05  0.111E-02    1.02       3.4  T
   8     -5.0517834  0.231663E-06  0.101E-02    1.02       3.7  T
   9     -5.0517841 -0.693475E-06  0.184E-03    1.02      20.5  T
  10     -5.0517841 -0.180130E-07  0.347E-04    1.02     109.0  T
  11     -5.0517841 -0.443655E-09  0.729E-05    1.02     518.6  T
     SCC iter.                  ...        0 min,  0.003 sec
     gradient                   ...        0 min,  0.000 sec
 * total energy  :    -4.9677760 Eh     change       -0.1325653E-02 Eh
   gradient norm :     0.0198298 Eh/α   predicted    -0.2373762E-02 (  79.06%)
   displ. norm   :     0.2796638 α      lambda       -0.2001184E-02
   maximum displ.:     0.2522805 α      in ANC's #4, #7, #8, ...

........................................................................
.............................. CYCLE   25 ..............................
........................................................................
   1     -5.0548174 -0.505482E+01  0.872E-01    0.99       0.0  T
   2     -5.0536557  0.116172E-02  0.585E-01    1.02       1.0  T
   3     -5.0201575  0.334981E-01  0.213E+00    0.89       1.0  T
   4     -5.0548130 -0.346554E-01  0.115E-01    1.00       1.0  T
   5     -5.0548731 -0.601465E-04  0.739E-02    1.00       1.0  T
   6     -5.0548672  0.594974E-05  0.669E-02    1.00       1.0  T
   7     -5.0548818 -0.145997E-04  0.281E-02    1.00       1.3  T
   8     -5.0548872 -0.545639E-05  0.591E-03    1.00       6.4  T
   9     -5.0548874 -0.171898E-06  0.107E-03    1.00      35.2  T
  10     -5.0548874 -0.263718E-08  0.384E-04    1.00      98.5  T
  11     -5.0548874 -0.422077E-09  0.164E-04    1.00     230.0  T
     SCC iter.                  ...        0 min,  0.002 sec
     gradient                   ...        0 min,  0.001 sec
 * total energy  :    -4.9681922 Eh     change       -0.4161926E-03 Eh
   gradient norm :     0.0110533 Eh/α   predicted    -0.1078848E-02 ( 159.22%)
   displ. norm   :     0.1083842 α      lambda       -0.5806687E-03
   maximum displ.:     0.0631543 α      in ANC's #8, #4, #3, ...

........................................................................
.............................. CYCLE   26 ..............................
........................................................................
   1     -5.0583216 -0.505832E+01  0.422E-01    1.02       0.0  T
   2     -5.0573308  0.990789E-03  0.457E-01    0.99       1.0  T
   3     -5.0564618  0.868999E-03  0.517E-01    1.04       1.0  T
   4     -5.0583448 -0.188302E-02  0.699E-02    1.01       1.0  T
   5     -5.0583637 -0.188610E-04  0.490E-02    1.01       1.0  T
   6     -5.0583700 -0.633490E-05  0.271E-02    1.01       1.4  T
   7     -5.0583739 -0.386486E-05  0.460E-03    1.01       8.2  T
   8     -5.0583740 -0.792824E-07  0.851E-04    1.01      44.4  T
   9     -5.0583740  0.392622E-08  0.824E-04    1.01      45.9  T
     SCC iter.                  ...        0 min,  0.001 sec
     gradient                   ...        0 min,  0.001 sec
 * total energy  :    -4.9685435 Eh     change       -0.3512426E-03 Eh
   gradient norm :     0.0068794 Eh/α   predicted    -0.2937444E-03 ( -16.37%)
   displ. norm   :     0.1297145 α      lambda       -0.2746973E-03
   maximum displ.:     0.0944661 α      in ANC's #8, #3, #4, ...

........................................................................
.............................. CYCLE   27 ..............................
........................................................................
   1     -5.0579627 -0.505796E+01  0.580E-01    1.01       0.0  T
   2     -5.0579079  0.548114E-04  0.396E-01    1.00       1.0  T
   3     -5.0505709  0.733699E-02  0.942E-01    1.07       1.0  T
   4     -5.0579140 -0.734304E-02  0.105E-01    1.00       1.0  T
   5     -5.0579615 -0.475408E-04  0.616E-02    1.00       1.0  T
   6     -5.0579751 -0.135674E-04  0.120E-02    1.01       3.1  T
   7     -5.0579753 -0.190771E-06  0.291E-03    1.01      13.0  T
   8     -5.0579753 -0.282998E-08  0.166E-03    1.01      22.8  T
   9     -5.0579753 -0.160089E-07  0.288E-04    1.01     131.4  T
  10     -5.0579753 -0.114957E-10  0.856E-05    1.01     441.6  T
     SCC iter.                  ...        0 min,  0.002 sec
     gradient                   ...        0 min,  0.001 sec
 * total energy  :    -4.9687597 Eh     change       -0.2162524E-03 Eh
   gradient norm :     0.0072929 Eh/α   predicted    -0.1396610E-03 ( -35.42%)
   displ. norm   :     0.2905062 α      lambda       -0.4312954E-03
   maximum displ.:     0.2217614 α      in ANC's #8, #3, #6, ...

........................................................................
.............................. CYCLE   28 ..............................
........................................................................
   1     -5.0549917 -0.505499E+01  0.131E+00    0.99       0.0  T
   2     -5.0550086 -0.168948E-04  0.846E-01    0.98       1.0  T
   3     -5.0539314  0.107723E-02  0.381E-01    1.02       1.0  T
   4     -5.0542441 -0.312732E-03  0.350E-01    0.97       1.0  T
   5     -5.0550103 -0.766134E-03  0.119E-01    0.99       1.0  T
   6     -5.0550215 -0.112169E-04  0.599E-02    0.99       1.0  T
   7     -5.0550451 -0.235751E-04  0.129E-02    0.99       2.9  T
   8     -5.0550460 -0.948663E-06  0.184E-03    0.99      20.5  T
   9     -5.0550460 -0.672367E-09  0.851E-04    0.99      44.4  T
  10     -5.0550460 -0.949951E-10  0.143E-04    0.99     264.6  T
     SCC iter.                  ...        0 min,  0.002 sec
     gradient                   ...        0 min,  0.000 sec
 * total energy  :    -4.9690214 Eh     change       -0.2617110E-03 Eh
   gradient norm :     0.0121592 Eh/α   predicted    -0.2338446E-03 ( -10.65%)
   displ. norm   :     0.1836347 α      lambda       -0.2983700E-03
   maximum displ.:     0.1286409 α      in ANC's #8, #3, #5, ...

........................................................................
.............................. CYCLE   29 ..............................
........................................................................
   1     -5.0552036 -0.505520E+01  0.766E-01    0.97       0.0  T
   2     -5.0551262  0.773385E-04  0.479E-01    0.98       1.0  T
   3     -5.0426229  0.125034E-01  0.129E+00    0.90       1.0  T
   4     -5.0552072 -0.125843E-01  0.834E-02    0.97       1.0  T
   5     -5.0552212 -0.139656E-04  0.262E-02    0.97       1.4  T
   6     -5.0552213 -0.190184E-06  0.598E-03    0.97       6.3  T
   7     -5.0552212  0.933655E-07  0.391E-03    0.97       9.7  T
   8     -5.0552214 -0.110606E-06  0.180E-03    0.97      21.0  T
   9     -5.0552214 -0.731939E-08  0.110E-03    0.97      34.4  T
  10     -5.0552214 -0.689544E-08  0.188E-04    0.97     201.1  T
  11     -5.0552214 -0.210834E-09  0.291E-05    0.97    1300.8  T
     SCC iter.                  ...        0 min,  0.002 sec
     gradient                   ...        0 min,  0.001 sec
 * total energy  :    -4.9692583 Eh     change       -0.2368581E-03 Eh
   gradient norm :     0.0080914 Eh/α   predicted    -0.1542169E-03 ( -34.89%)
   displ. norm   :     0.3013067 α      lambda       -0.4627263E-03
   maximum displ.:     0.2077541 α      in ANC's #3, #8, #6, ...

........................................................................
.............................. CYCLE   30 ..............................
........................................................................
   1     -5.0572775 -0.505728E+01  0.104E+00    0.95       0.0  T
   2     -5.0571854  0.921046E-04  0.650E-01    0.96       1.0  T
   3     -5.0407295  0.164559E-01  0.149E+00    0.88       1.0  T
   4     -5.0572430 -0.165135E-01  0.111E-01    0.95       1.0  T
   5     -5.0572831 -0.400128E-04  0.852E-02    0.96       1.0  T
   6     -5.0573014 -0.183402E-04  0.340E-02    0.95       1.1  T
   7     -5.0573063 -0.486982E-05  0.110E-02    0.96       3.4  T
   8     -5.0573067 -0.480110E-06  0.289E-03    0.96      13.1  T
   9     -5.0573067 -0.869995E-08  0.162E-03    0.96      23.4  T
  10     -5.0573068 -0.160042E-07  0.179E-04    0.96     211.2  T
  11     -5.0573068 -0.143239E-09  0.599E-05    0.96     631.2  T
     SCC iter.                  ...        0 min,  0.002 sec
     gradient                   ...        0 min,  0.000 sec
 * total energy  :    -4.9695496 Eh     change       -0.2913450E-03 Eh
   gradient norm :     0.0033910 Eh/α   predicted    -0.2523674E-03 ( -13.38%)
   displ. norm   :     0.2931331 α      lambda       -0.1674885E-03
   maximum displ.:     0.2086287 α      in ANC's #3, #8, #6, ...

........................................................................
.............................. CYCLE   31 ..............................
........................................................................
   1     -5.0556558 -0.505566E+01  0.104E+00    0.95       0.0  T
   2     -5.0556477  0.810171E-05  0.670E-01    0.95       1.0  T
   3     -5.0519583  0.368942E-02  0.711E-01    1.00       1.0  T
   4     -5.0552865 -0.332826E-02  0.245E-01    0.94       1.0  T
   5     -5.0556734 -0.386861E-03  0.860E-02    0.95       1.0  T
   6     -5.0556811 -0.771745E-05  0.396E-02    0.95       1.0  T
   7     -5.0556897 -0.855673E-05  0.979E-03    0.95       3.9  T
   8     -5.0556899 -0.295138E-06  0.325E-03    0.95      11.6  T
   9     -5.0556900 -0.236019E-07  0.107E-03    0.95      35.2  T
  10     -5.0556900 -0.306950E-09  0.139E-04    0.95     271.0  T
  11     -5.0556900 -0.588960E-10  0.566E-05    0.95     668.1  T
     SCC iter.                  ...        0 min,  0.002 sec
     gradient                   ...        0 min,  0.000 sec
 * total energy  :    -4.9696174 Eh     change       -0.6775082E-04 Eh
   gradient norm :     0.0053761 Eh/α   predicted    -0.9094145E-04 (  34.23%)
   displ. norm   :     0.1334539 α      lambda       -0.1840468E-03
   maximum displ.:     0.1088015 α      in ANC's #3, #6, #11, ...

........................................................................
.............................. CYCLE   32 ..............................
........................................................................
   1     -5.0580600 -0.505806E+01  0.310E-01    0.95       0.0  T
   2     -5.0580534  0.662132E-05  0.202E-01    0.95       1.0  T
   3     -5.0571133  0.940138E-03  0.349E-01    0.97       1.0  T
   4     -5.0579774 -0.864074E-03  0.112E-01    0.95       1.0  T
   5     -5.0580657 -0.883101E-04  0.246E-02    0.95       1.5  T
   6     -5.0580630  0.262774E-05  0.239E-02    0.95       1.6  T
   7     -5.0580664 -0.333745E-05  0.159E-03    0.95      23.8  T
   8     -5.0580664  0.282967E-08  0.108E-03    0.95      34.9  T
   9     -5.0580664 -0.454583E-08  0.387E-04    0.95      97.7  T
  10     -5.0580664 -0.431692E-09  0.612E-05    0.95     618.0  T
     SCC iter.                  ...        0 min,  0.001 sec
     gradient                   ...        0 min,  0.001 sec
 * total energy  :    -4.9697157 Eh     change       -0.9830932E-04 Eh
   gradient norm :     0.0032334 Eh/α   predicted    -0.9366193E-04 (  -4.73%)
   displ. norm   :     0.1384319 α      lambda       -0.5093086E-04
   maximum displ.:     0.1120490 α      in ANC's #3, #8, #1, ...

........................................................................
.............................. CYCLE   33 ..............................
........................................................................
   1     -5.0580163 -0.505802E+01  0.440E-01    0.95       0.0  T
   2     -5.0580069  0.939993E-05  0.296E-01    0.95       1.0  T
   3     -5.0559300  0.207689E-02  0.533E-01    0.98       1.0  T
   4     -5.0579912 -0.206119E-02  0.803E-02    0.95       1.0  T
   5     -5.0580125 -0.212716E-04  0.428E-02    0.95       1.0  T
   6     -5.0580197 -0.720014E-05  0.192E-02    0.95       2.0  T
   7     -5.0580220 -0.229406E-05  0.227E-03    0.95      16.7  T
   8     -5.0580220  0.239791E-08  0.122E-03    0.95      30.9  T
   9     -5.0580220 -0.373802E-08  0.404E-04    0.95      93.6  T
  10     -5.0580220 -0.108010E-09  0.428E-05    0.95     882.6  T
     SCC iter.                  ...        0 min,  0.001 sec
     gradient                   ...        0 min,  0.000 sec
 * total energy  :    -4.9697566 Eh     change       -0.4087052E-04 Eh
   gradient norm :     0.0026892 Eh/α   predicted    -0.2595351E-04 ( -36.50%)
   displ. norm   :     0.1735920 α      lambda       -0.7541014E-04
   maximum displ.:     0.1491130 α      in ANC's #3, #1, #4, ...

........................................................................
.............................. CYCLE   34 ..............................
........................................................................
   1     -5.0581769 -0.505818E+01  0.551E-01    0.95       0.0  T
   2     -5.0581673  0.958300E-05  0.374E-01    0.95       1.0  T
   3     -5.0556410  0.252633E-02  0.595E-01    0.99       1.0  T
   4     -5.0581244 -0.248340E-02  0.107E-01    0.95       1.0  T
   5     -5.0581773 -0.528806E-04  0.522E-02    0.95       1.0  T
   6     -5.0581822 -0.493692E-05  0.239E-02    0.96       1.6  T
   7     -5.0581859 -0.369316E-05  0.237E-03    0.95      15.9  T
   8     -5.0581859 -0.713611E-09  0.121E-03    0.95      31.2  T
   9     -5.0581859 -0.262489E-08  0.333E-04    0.95     113.7  T
  10     -5.0581859 -0.349889E-10  0.613E-05    0.95     616.9  T
     SCC iter.                  ...        0 min,  0.001 sec
     gradient                   ...        0 min,  0.001 sec
 * total energy  :    -4.9698090 Eh     change       -0.5240422E-04 Eh
   gradient norm :     0.0021675 Eh/α   predicted    -0.3884040E-04 ( -25.88%)
   displ. norm   :     0.1077113 α      lambda       -0.3609820E-04
   maximum displ.:     0.0890418 α      in ANC's #3, #1, #4, ...

........................................................................
.............................. CYCLE   35 ..............................
........................................................................
   1     -5.0579019 -0.505790E+01  0.356E-01    0.95       0.0  T
   2     -5.0579030 -0.108098E-05  0.237E-01    0.95       1.0  T
   3     -5.0578468  0.561886E-04  0.957E-02    0.96       1.0  T
   4     -5.0578800 -0.332400E-04  0.689E-02    0.95       1.0  T
   5     -5.0579002 -0.201970E-04  0.237E-02    0.95       1.6  T
   6     -5.0579037 -0.340613E-05  0.106E-02    0.95       3.6  T
   7     -5.0579044 -0.759541E-06  0.801E-04    0.95      47.2  T
   8     -5.0579044 -0.785477E-09  0.285E-04    0.95     132.5  T
     SCC iter.                  ...        0 min,  0.010 sec
     gradient                   ...        0 min,  0.001 sec
 * total energy  :    -4.9698353 Eh     change       -0.2634596E-04 Eh
   gradient norm :     0.0015478 Eh/α   predicted    -0.1825745E-04 ( -30.70%)
   displ. norm   :     0.1577897 α      lambda       -0.3272080E-04
   maximum displ.:     0.1307522 α      in ANC's #3, #6, #4, ...

........................................................................
.............................. CYCLE   36 ..............................
........................................................................
   1     -5.0577598 -0.505776E+01  0.465E-01    0.95       0.0  T
   2     -5.0577615 -0.161358E-05  0.305E-01    0.95       1.0  T
   3     -5.0575871  0.174311E-03  0.164E-01    0.95       1.0  T
   4     -5.0577507 -0.163539E-03  0.634E-02    0.96       1.0  T
   5     -5.0577499  0.800466E-06  0.430E-02    0.95       1.0  T
   6     -5.0577646 -0.147522E-04  0.434E-03    0.95       8.7  T
   7     -5.0577647 -0.222936E-07  0.212E-03    0.95      17.8  T
   8     -5.0577647  0.417404E-08  0.111E-03    0.95      34.2  T
   9     -5.0577647 -0.167510E-08  0.711E-04    0.95      53.2  T
  10     -5.0577647 -0.302830E-08  0.649E-05    0.95     582.1  T
     SCC iter.                  ...        0 min,  0.002 sec
     gradient                   ...        0 min,  0.001 sec
 * total energy  :    -4.9698605 Eh     change       -0.2513116E-04 Eh
   gradient norm :     0.0022281 Eh/α   predicted    -0.1654126E-04 ( -34.18%)
   displ. norm   :     0.0693287 α      lambda       -0.1841733E-04
   maximum displ.:     0.0599616 α      in ANC's #3, #6, #4, ...

........................................................................
.............................. CYCLE   37 ..............................
........................................................................
   1     -5.0572901 -0.505729E+01  0.202E-01    0.95       0.0  T
   2     -5.0572906 -0.488318E-06  0.134E-01    0.95       1.0  T
   3     -5.0572886  0.198417E-05  0.265E-02    0.95       1.4  T
   4     -5.0572753  0.132857E-04  0.490E-02    0.95       1.0  T
   5     -5.0572846 -0.931689E-05  0.309E-02    0.95       1.2  T
   6     -5.0572901 -0.545232E-05  0.120E-02    0.95       3.1  T
   7     -5.0572910 -0.928367E-06  0.693E-04    0.95      54.5  T
   8     -5.0572910 -0.510302E-09  0.247E-04    0.95     152.8  T
     SCC iter.                  ...        0 min,  0.001 sec
     gradient                   ...        0 min,  0.000 sec
 * total energy  :    -4.9698714 Eh     change       -0.1092318E-04 Eh
   gradient norm :     0.0012874 Eh/α   predicted    -0.9252339E-05 ( -15.30%)
   displ. norm   :     0.0558901 α      lambda       -0.1146663E-04
   maximum displ.:     0.0479799 α      in ANC's #3, #10, #6, ...

........................................................................
.............................. CYCLE   38 ..............................
........................................................................
   1     -5.0574438 -0.505744E+01  0.154E-01    0.95       0.0  T
   2     -5.0574439 -0.101014E-06  0.103E-01    0.95       1.0  T
   3     -5.0573396  0.104287E-03  0.122E-01    0.96       1.0  T
   4     -5.0574441 -0.104576E-03  0.185E-02    0.95       2.0  T
   5     -5.0574441  0.670119E-07  0.148E-02    0.95       2.6  T
   6     -5.0574448 -0.746240E-06  0.588E-03    0.95       6.4  T
   7     -5.0574450 -0.188592E-06  0.136E-03    0.95      27.8  T
   8     -5.0574450 -0.127163E-08  0.522E-04    0.95      72.4  T
   9     -5.0574450 -0.746191E-09  0.256E-04    0.95     147.8  T
     SCC iter.                  ...        0 min,  0.004 sec
     gradient                   ...        0 min,  0.001 sec
 * total energy  :    -4.9698789 Eh     change       -0.7559589E-05 Eh
   gradient norm :     0.0011078 Eh/α   predicted    -0.5740250E-05 ( -24.07%)
   displ. norm   :     0.0327916 α      lambda       -0.4156999E-05
   maximum displ.:     0.0242497 α      in ANC's #3, #6, #5, ...

........................................................................
.............................. CYCLE   39 ..............................
........................................................................
   1     -5.0576005 -0.505760E+01  0.815E-02    0.95       0.0  T
   2     -5.0575974  0.313436E-05  0.552E-02    0.95       1.0  T
   3     -5.0574134  0.183997E-03  0.165E-01    0.96       1.0  T
   4     -5.0575990 -0.185648E-03  0.151E-02    0.95       2.5  T
   5     -5.0576009 -0.181416E-05  0.628E-03    0.95       6.0  T
   6     -5.0576009 -0.456669E-07  0.133E-03    0.95      28.4  T
   7     -5.0576009 -0.537305E-08  0.435E-04    0.95      87.0  T
   8     -5.0576009  0.488063E-10  0.194E-04    0.95     195.2  T
     SCC iter.                  ...        0 min,  0.004 sec
     gradient                   ...        0 min,  0.001 sec
 * total energy  :    -4.9698824 Eh     change       -0.3433261E-05 Eh
   gradient norm :     0.0009335 Eh/α   predicted    -0.2080050E-05 ( -39.41%)
   displ. norm   :     0.0540476 α      lambda       -0.4092053E-05
   maximum displ.:     0.0367347 α      in ANC's #3, #6, #1, ...

   *** GEOMETRY OPTIMIZATION CONVERGED AFTER 39 ITERATIONS ***

------------------------------------------------------------------------
 total energy gain   :        -0.4601922 Eh     -288.7750 kcal/mol
 total RMSD          :         1.9275288 a0        1.0200 Å
 total power (kW/mol):       -30.9803702 (step)********** (real)
------------------------------------------------------------------------

 ANCopt (total)                0 d,  0 h,  0 min,  0.113 sec
 optimizer setup                ...        0 min,  0.000 sec (  0.020%)
 model hessian                  ...        0 min,  0.000 sec (  0.182%)
 ANC generation                 ...        0 min,  0.000 sec (  0.057%)
 coordinate transformation      ...        0 min,  0.000 sec (  0.082%)
 single point calculation       ...        0 min,  0.109 sec ( 96.510%)
 optimization log               ...        0 min,  0.001 sec (  0.952%)
 hessian update                 ...        0 min,  0.001 sec (  1.034%)
 rational function              ...        0 min,  0.001 sec (  0.540%)

================
 final structure:
================
7
 xtb: 6.5.1 (conda-forge)
Be          -0.71897589006487        0.03574948462159        0.13589349315427
B            1.95464163653518        0.27991429145753        1.85860065293467
B            0.66599173505370        0.15842103168679        1.03207120049046
H            2.59069052886892       -0.64990714764756        2.23883639068058
H            2.42695050581149        1.32444959925744        2.18318184231749
H            0.34059477042386        0.23164841689229        3.87975557269874
H            0.13210671337194        0.24772432373251        4.64366084772383

 Bond Distances (Angstroems)
 ---------------------------
Be1-B3=1.6542        B2-B3=1.5358         B2-H4=1.1890         B2-H5=1.1914         B3-Be1=1.6542        B3-B2=1.5358         
H4-B2=1.1890         H5-B2=1.1914         H6-H7=0.7920         H7-H6=0.7920         
 H  H  Rav=0.7920 sigma=0.0000  Rmin=0.7920  Rmax=0.7920     1
 B  H  Rav=1.1902 sigma=0.0012  Rmin=1.1890  Rmax=1.1914     2
 B  Be Rav=1.6542 sigma=0.0000  Rmin=1.6542  Rmax=1.6542     1
 B  B  Rav=1.5358 sigma=0.0000  Rmin=1.5358  Rmax=1.5358     1

 selected bond angles (degree)
 --------------------
H4-B2-B3=124.00                H5-B2-B3=123.27                H5-B2-H4=112.73                B2-B3-Be1=179.63               

 selected dihedral angles (degree)
 ---------------------------------
Be1-B3-B2-H4=220.25           Be1-B3-B2-H5= 39.94           

 CMA Distance (Angstroems)
 ---------------------------
R(CMA):  0.5685
           -------------------------------------------------
          |                Final Singlepoint                |
           -------------------------------------------------

          ...................................................
          :                      SETUP                      :
          :.................................................:
          :  # basis functions                  16          :
          :  # atomic orbitals                  16          :
          :  # shells                           10          :
          :  # electrons                        12          :
          :  max. iterations                   250          :
          :  Hamiltonian                  GFN2-xTB          :
          :  restarted?                      false          :
          :  GBSA solvation                  false          :
          :  PC potential                    false          :
          :  electronic temp.          300.0000000     K    :
          :  accuracy                    1.0000000          :
          :  -> integral cutoff          0.2500000E+02      :
          :  -> integral neglect         0.1000000E-07      :
          :  -> SCF convergence          0.1000000E-05 Eh   :
          :  -> wf. convergence          0.1000000E-03 e    :
          :  Broyden damping             0.4000000          :
          ...................................................

 iter      E             dE          RMSdq      gap      omega  full diag
   1     -5.0576009 -0.505760E+01  0.114E-04    0.95       0.0  T
   2     -5.0576009  0.144919E-08  0.463E-04    0.95      81.6  T
   3     -5.0576009 -0.151935E-08  0.348E-05    0.95    1086.5  T

   *** convergence criteria satisfied after 3 iterations ***

         #    Occupation            Energy/Eh            Energy/eV
      -------------------------------------------------------------
         1        2.0000           -0.4324748             -11.7682
         2        2.0000           -0.4053224             -11.0294
         3        2.0000           -0.3613308              -9.8323
         4        2.0000           -0.3376375              -9.1876
         5        2.0000           -0.2953624              -8.0372
         6        2.0000           -0.2516880              -6.8488 (HOMO)
         7                         -0.2167065              -5.8969 (LUMO)
         8                         -0.1894518              -5.1552
         9                         -0.1498493              -4.0776
        10                         -0.0617028              -1.6790
        11                         -0.0140208              -0.3815
       ...                                ...                  ...
        16                          0.8463550              23.0305
      -------------------------------------------------------------
                  HL-Gap            0.0349815 Eh            0.9519 eV
             Fermi-level           -0.2341973 Eh           -6.3728 eV

 SCC (total)                   0 d,  0 h,  0 min,  0.001 sec
 SCC setup                      ...        0 min,  0.000 sec (  4.671%)
 Dispersion                     ...        0 min,  0.000 sec (  9.316%)
 classical contributions        ...        0 min,  0.000 sec (  2.039%)
 integral evaluation            ...        0 min,  0.000 sec (  6.813%)
 iterations                     ...        0 min,  0.000 sec ( 29.316%)
 molecular gradient             ...        0 min,  0.000 sec ( 45.135%)
 printout                       ...        0 min,  0.000 sec (  1.832%)

         :::::::::::::::::::::::::::::::::::::::::::::::::::::
         ::                     SUMMARY                     ::
         :::::::::::::::::::::::::::::::::::::::::::::::::::::
         :: total energy              -4.969882368698 Eh    ::
         :: gradient norm              0.000933928076 Eh/a0 ::
         :: HOMO-LUMO gap              0.951894987164 eV    ::
         ::.................................................::
         :: SCC energy                -5.057600910215 Eh    ::
         :: -> isotropic ES            0.010667161170 Eh    ::
         :: -> anisotropic ES          0.016813095865 Eh    ::
         :: -> anisotropic XC         -0.011650092747 Eh    ::
         :: -> dispersion             -0.002729413879 Eh    ::
         :: repulsion energy           0.087716413530 Eh    ::
         :: add. restraining           0.000000000000 Eh    ::
         :: total charge               0.000000000000 e     ::
         :::::::::::::::::::::::::::::::::::::::::::::::::::::

           -------------------------------------------------
          |                Property Printout                |
           -------------------------------------------------

    * Orbital Energies and Occupations

         #    Occupation            Energy/Eh            Energy/eV
      -------------------------------------------------------------
         1        2.0000           -0.4324748             -11.7682
         2        2.0000           -0.4053224             -11.0294
         3        2.0000           -0.3613308              -9.8323
         4        2.0000           -0.3376375              -9.1876
         5        2.0000           -0.2953624              -8.0372
         6        2.0000           -0.2516880              -6.8488 (HOMO)
         7                         -0.2167065              -5.8969 (LUMO)
         8                         -0.1894518              -5.1552
         9                         -0.1498493              -4.0776
        10                         -0.0617028              -1.6790
        11                         -0.0140208              -0.3815
        12                          0.1591018               4.3294
        13                          0.4229050              11.5078
        14                          0.4539384              12.3523
        15                          0.7403958              20.1472
        16                          0.8463550              23.0305
      -------------------------------------------------------------
                  HL-Gap            0.0349815 Eh            0.9519 eV
             Fermi-level           -0.2341973 Eh           -6.3728 eV

     #   Z          covCN         q      C6AA      α(0)
     1   4 Be       0.912     0.329    68.835    24.884
     2   5 B        2.840     0.071    20.227     7.511
     3   5 B        1.889    -0.089    47.834    14.562
     4   1 H        0.932    -0.145     7.449     4.268
     5   1 H        0.931    -0.146     7.472     4.274
     6   1 H        0.762     0.017     2.867     2.669
     7   1 H        0.762    -0.037     3.906     3.115

 Mol. C6AA /au·bohr⁶  :        776.445319
 Mol. C8AA /au·bohr⁸  :      23610.705122
 Mol. α(0) /au        :         61.282236


Wiberg/Mayer (AO) data.
largest (>0.10) Wiberg bond orders for each atom

 ---------------------------------------------------------------------------
     #   Z sym  total        # sym  WBO       # sym  WBO       # sym  WBO
 ---------------------------------------------------------------------------
     1   4 Be   1.907 --     3 B    1.601     2 B    0.283
     2   5 B    3.560 --     3 B    1.441     4 H    0.913     5 H    0.911
                             1 Be   0.283
     3   5 B    3.180 --     1 Be   1.601     2 B    1.441
Note: The following floating-point exceptions are signalling: IEEE_UNDERFLOW_FLAG
normal termination of xtb
     4   1 H    0.979 --     2 B    0.913
     5   1 H    0.979 --     2 B    0.911
     6   1 H    1.000 --     7 H    0.977
     7   1 H    0.999 --     6 H    0.977
 ---------------------------------------------------------------------------

Topologies differ in total number of bonds
Writing topology from bond orders to xtbtopo.mol

molecular dipole:
                 x           y           z       tot (Debye)
 q only:       -1.676      -0.163      -1.255
   full:       -2.603      -0.239      -1.844       8.130
molecular quadrupole (traceless):
                xx          xy          yy          xz          yz          zz
 q only:       -1.324      -1.086       4.655      -7.773      -1.142      -3.331
  q+dip:        3.379      -0.627       1.520      -3.772      -0.910      -4.899
   full:        1.033      -1.099       5.003      -5.503      -1.157      -6.036

           -------------------------------------------------
          |                Geometry Summary                 |
           -------------------------------------------------

      molecular mass/u    :       34.6660022
   center of mass at/Å    :        0.7900000       0.1795452       1.3132194
  moments of inertia/u·Å² :        0.1777782E+02   0.6449145E+02   0.7831046E+02
rotational constants/cm⁻¹ :        0.9482394E+00   0.2613933E+00   0.2152667E+00

 * 5 selected distances

     #   Z          #   Z                                           value/Å
     1   4 Be       3   5 B                                       1.6541822 (max)
     2   5 B        3   5 B                                       1.5357508
     2   5 B        4   1 H                                       1.1889935
     2   5 B        5   1 H                                       1.1914205
     6   1 H        7   1 H                                       0.7920083 (min)

 * 4 distinct bonds (by element types)

   Z      Z             #   av. dist./Å        max./Å        min./Å
   1 H    1 H           1     0.7920083     0.7920083     0.7920083
   1 H    5 B           2     1.1902070     1.1914205     1.1889935
   4 Be   5 B           1     1.6541822     1.6541822     1.6541822
   5 B    5 B           1     1.5357508     1.5357508     1.5357508


optimized geometry written to: xtbopt.xyz


           -------------------------------------------------
          | TOTAL ENERGY               -4.969882368698 Eh   |
          | GRADIENT NORM               0.000933928076 Eh/α |
          | HOMO-LUMO GAP               0.951894987164 eV   |
           -------------------------------------------------
########################################################################
[WARNING] Runtime exception occurred
-3- restart_readRestart: Dimension missmatch in restart file.
-2- restart_readRestart: Multiplicity missmatch in restart file.
-1- restart_readRestart: Number of electron missmatch in restart file.
########################################################################

------------------------------------------------------------------------
 * finished run on 2025/06/07 at 03:27:43.041     
------------------------------------------------------------------------
 total:
 * wall-time:     0 d,  0 h,  0 min,  0.131 sec
 *  cpu-time:     0 d,  0 h,  0 min,  1.697 sec
 * ratio c/w:    12.953 speedup
 SCF:
 * wall-time:     0 d,  0 h,  0 min,  0.013 sec
 *  cpu-time:     0 d,  0 h,  0 min,  0.157 sec
 * ratio c/w:    11.995 speedup
 ANC optimizer:
 * wall-time:     0 d,  0 h,  0 min,  0.115 sec
 *  cpu-time:     0 d,  0 h,  0 min,  1.502 sec
 * ratio c/w:    13.107 speedup

