      -----------------------------------------------------------      
     |                   =====================                   |     
     |                           x T B                           |     
     |                   =====================                   |     
     |                         S. Grimme                         |     
     |          Mulliken Center for Theoretical Chemistry        |     
     |                    University of Bonn                     |     
      -----------------------------------------------------------      

   * xtb version 6.5.1 (conda-forge) compiled by 'runner@Mac-1657629245115.local' on 2022-07-12

   xtb is free software: you can redistribute it and/or modify it under
   the terms of the GNU Lesser General Public License as published by
   the Free Software Foundation, either version 3 of the License, or
   (at your option) any later version.
   
   xtb is distributed in the hope that it will be useful,
   but WITHOUT ANY WARRANTY; without even the implied warranty of
   MERCHANTABILITY or FITNESS FOR A PARTICULAR PURPOSE.  See the
   GNU Lesser General Public License for more details.
   
   Cite this work as:
   * C. Bannwarth, E. Caldeweyher, S. Ehlert, A. Hansen, P. Pracht,
     J. Seibert, S. Spicher, S. Grimme, WIREs Comput. Mol. Sci., 2020, 11,
     e01493. DOI: 10.1002/wcms.1493
   
   for GFN2-xTB:
   * C. Bannwarth, S. Ehlert and S. Grimme., J. Chem. Theory Comput., 2019,
     15, 1652-1671. DOI: 10.1021/acs.jctc.8b01176
   for GFN1-xTB:
   * S. Grimme, C. Bannwarth, P. Shushkov, J. Chem. Theory Comput., 2017,
     13, 1989-2009. DOI: 10.1021/acs.jctc.7b00118
   for GFN0-xTB:
   * P. Pracht, E. Caldeweyher, S. Ehlert, S. Grimme, ChemRxiv, 2019, preprint.
     DOI: 10.26434/chemrxiv.8326202.v1
   for GFN-FF:
   * S. Spicher and S. Grimme, Angew. Chem. Int. Ed., 2020, 59, 15665-15673.
     DOI: 10.1002/anie.202004239
   
   for ALPB and GBSA implicit solvation:
   * S. Ehlert, M. Stahn, S. Spicher, S. Grimme, J. Chem. Theory Comput.,
     2021, 17, 4250-4261. DOI: 10.1021/acs.jctc.1c00471
   
   for DFT-D4:
   * E. Caldeweyher, C. Bannwarth and S. Grimme, J. Chem. Phys., 2017,
     147, 034112. DOI: 10.1063/1.4993215
   * E. Caldeweyher, S. Ehlert, A. Hansen, H. Neugebauer, S. Spicher,
     C. Bannwarth and S. Grimme, J. Chem. Phys., 2019, 150, 154122.
     DOI: 10.1063/1.5090222
   * E. Caldeweyher, J.-M. Mewes, S. Ehlert and S. Grimme, Phys. Chem. Chem. Phys.
     2020, 22, 8499-8512. DOI: 10.1039/D0CP00502A
   
   for sTDA-xTB:
   * S. Grimme and C. Bannwarth, J. Chem. Phys., 2016, 145, 054103.
     DOI: 10.1063/1.4959605
   
   in the mass-spec context:
   * V. Asgeirsson, C. Bauer and S. Grimme, Chem. Sci., 2017, 8, 4879.
     DOI: 10.1039/c7sc00601b
   * J. Koopman and S. Grimme, ACS Omega 2019, 4, 12, 15120-15133.
     DOI: 10.1021/acsomega.9b02011
   
   for metadynamics refer to:
   * S. Grimme, J. Chem. Theory Comput., 2019, 155, 2847-2862
     DOI: 10.1021/acs.jctc.9b00143
   
   for SPH calculations refer to:
   * S. Spicher and S. Grimme, J. Chem. Theory Comput., 2021, 17, 1701-1714
     DOI: 10.1021/acs.jctc.0c01306
   
   with help from (in alphabetical order)
   P. Atkinson, C. Bannwarth, F. Bohle, G. Brandenburg, E. Caldeweyher
   M. Checinski, S. Dohm, S. Ehlert, S. Ehrlich, I. Gerasimov, C. Hölzer
   A. Katbashev, J. Koopman, C. Lavigne, S. Lehtola, F. März, M. Müller,
   F. Musil, H. Neugebauer, J. Pisarek, C. Plett, P. Pracht, F. Pultar,
   J. Seibert, P. Shushkov, S. Spicher, M. Stahn, M. Steiner, T. Strunk,
   J. Stückrath, T. Rose, and J. Unsleber
   
 * started run on 2025/06/07 at 03:27:41.294     

           -------------------------------------------------
          |                Calculation Setup                |
           -------------------------------------------------

          program call               : xtb B2BeC3H4.xyz --gfn 2 --opt
          coordinate file            : B2BeC3H4.xyz
          omp threads                :                    16

   ID    Z sym.   atoms
    1    4 Be     1
    2    5 B      2, 3
    3    6 C      4-6
    4    1 H      7-10

molecular fragmentation (1/2 indicates fragments):
1112222222
# atoms in fragment 1/2:     3     7
 fragment masses (1/2) :       30.63       40.06
CMA distance (Bohr)    :   5.465
constraining FC (au)   :  0.0500

           -------------------------------------------------
          |                 G F N 2 - x T B                 |
           -------------------------------------------------

        Reference                      10.1021/acs.jctc.8b01176
      * Hamiltonian:
        H0-scaling (s, p, d)           1.850000    2.230000    2.230000
        zeta-weighting                 0.500000
      * Dispersion:
        s8                             2.700000
        a1                             0.520000
        a2                             5.000000
        s9                             5.000000
      * Repulsion:
        kExp                           1.500000    1.000000
        rExp                           1.000000
      * Coulomb:
        alpha                          2.000000
        third order                    shell-resolved
        anisotropic                    true
        a3                             3.000000
        a5                             4.000000
        cn-shift                       1.200000
        cn-exp                         4.000000
        max-rad                        5.000000


          ...................................................
          :                      SETUP                      :
          :.................................................:
          :  # basis functions                  28          :
          :  # atomic orbitals                  28          :
          :  # shells                           16          :
          :  # electrons                        24          :
          :  max. iterations                   250          :
          :  Hamiltonian                  GFN2-xTB          :
          :  restarted?                      false          :
          :  GBSA solvation                  false          :
          :  PC potential                    false          :
          :  electronic temp.          300.0000000     K    :
          :  accuracy                    1.0000000          :
          :  -> integral cutoff          0.2500000E+02      :
          :  -> integral neglect         0.1000000E-07      :
          :  -> SCF convergence          0.1000000E-05 Eh   :
          :  -> wf. convergence          0.1000000E-03 e    :
          :  Broyden damping             0.4000000          :
          ...................................................

 iter      E             dE          RMSdq      gap      omega  full diag
   1      9.6453074  0.964531E+01  0.230E+01    0.43       0.0  T
   2     -6.1426500 -0.157880E+02  0.224E+01    1.00       1.0  T
   3     -5.2142723  0.928378E+00  0.159E+01    0.89       1.0  T
   4     -1.8490363  0.336524E+01  0.220E+01    0.81       1.0  T
   5     -5.7294435 -0.388041E+01  0.149E+01    0.45       1.0  T
   6     -7.4614185 -0.173198E+01  0.149E+01    0.58       1.0  T
   7     -9.2557745 -0.179436E+01  0.128E+01    0.70       1.0  T
   8     -9.2562182 -0.443642E-03  0.120E+01    0.84       1.0  T
   9     -9.4270931 -0.170875E+00  0.114E+01    0.95       1.0  T
  10    -10.0384027 -0.611310E+00  0.104E+01    0.29       1.0  T
  11     -9.5933846  0.445018E+00  0.672E+00    0.47       1.0  T
  12    -10.4706100 -0.877225E+00  0.678E+00    0.22       1.0  T
  13    -10.5533933 -0.827833E-01  0.602E+00    0.30       1.0  T
  14    -10.5843241 -0.309308E-01  0.612E+00    0.30       1.0  T
  15     -1.4373710  0.914695E+01  0.166E+01    0.62       1.0  T
  16    -10.4788469 -0.904148E+01  0.613E+00    0.09       1.0  T
  17    -10.5724771 -0.936302E-01  0.478E+00    0.33       1.0  T
  18    -10.5535997  0.188774E-01  0.248E+00    0.43       1.0  T
  19    -10.6055798 -0.519801E-01  0.284E+00    0.39       1.0  T
  20    -10.5813410  0.242388E-01  0.352E+00    0.34       1.0  T
  21    -10.6130924 -0.317514E-01  0.223E+00    0.37       1.0  T
  22    -10.5820782  0.310143E-01  0.316E+00    0.30       1.0  T
  23    -10.5805567  0.152147E-02  0.317E+00    0.30       1.0  T
  24    -10.6187851 -0.382284E-01  0.260E+00    0.33       1.0  T
  25    -10.6201109 -0.132579E-02  0.242E+00    0.34       1.0  T
  26    -10.6101848  0.992615E-02  0.179E+00    0.35       1.0  T
  27    -10.5986095  0.115752E-01  0.133E+00    0.35       1.0  T
  28    -10.5942057  0.440388E-02  0.123E+00    0.35       1.0  T
  29    -10.5960565 -0.185086E-02  0.112E+00    0.35       1.0  T
  30    -10.6086006 -0.125440E-01  0.100E+00    0.35       1.0  T
  31    -10.6145727 -0.597212E-02  0.769E-01    0.36       1.0  T
  32    -10.6187626 -0.418992E-02  0.576E-01    0.36       1.0  T
  33    -10.6230890 -0.432637E-02  0.454E-01    0.36       1.0  T
  34    -10.6241574 -0.106841E-02  0.288E-01    0.36       1.0  T
  35    -10.6240704  0.869704E-04  0.242E-01    0.36       1.0  T
  36    -10.6246014 -0.530978E-03  0.203E-01    0.36       1.0  T
  37    -10.6250364 -0.435067E-03  0.166E-01    0.36       1.0  T
  38    -10.6254028 -0.366346E-03  0.145E-01    0.36       1.0  T
  39    -10.6254776 -0.747966E-04  0.133E-01    0.36       1.0  T
  40    -10.6255775 -0.998831E-04  0.119E-01    0.36       1.0  T
  41    -10.6256835 -0.106039E-03  0.935E-02    0.36       1.0  T
  42    -10.6257993 -0.115815E-03  0.695E-02    0.36       1.0  T
  43    -10.6259118 -0.112454E-03  0.400E-02    0.36       1.0  T
  44    -10.6259638 -0.520351E-04  0.193E-02    0.36       1.6  T
  45    -10.6259809 -0.170419E-04  0.774E-03    0.36       4.1  T
  46    -10.6259816 -0.743030E-06  0.512E-03    0.36       6.2  T
  47    -10.6259817 -0.761817E-07  0.245E-03    0.36      12.9  T
  48    -10.6259817  0.154140E-07  0.145E-03    0.36      21.8  T
  49    -10.6259817 -0.566868E-07  0.900E-04    0.36      35.1  T
  50    -10.6259817 -0.250860E-07  0.352E-04    0.36      89.9  T

   *** convergence criteria satisfied after 50 iterations ***

         #    Occupation            Energy/Eh            Energy/eV
      -------------------------------------------------------------
         1        2.0000           -0.6073832             -16.5277
       ...           ...                  ...                  ...
         6        2.0000           -0.3609996              -9.8233
         7        2.0000           -0.3281140              -8.9284
         8        2.0000           -0.3188774              -8.6771
         9        2.0000           -0.2956123              -8.0440
        10        2.0000           -0.2901495              -7.8954
        11        2.0000           -0.2743877              -7.4665
        12        1.9981           -0.2536752              -6.9029 (HOMO)
        13        0.0019           -0.2404438              -6.5428 (LUMO)
        14                         -0.2206550              -6.0043
        15                         -0.2083002              -5.6681
        16                         -0.2039824              -5.5506
        17                         -0.1830970              -4.9823
       ...                                ...                  ...
        28                          0.4781674              13.0116
      -------------------------------------------------------------
                  HL-Gap            0.0132315 Eh            0.3600 eV
             Fermi-level           -0.2470595 Eh           -6.7228 eV

 SCC (total)                   0 d,  0 h,  0 min,  0.010 sec
 SCC setup                      ...        0 min,  0.000 sec (  1.758%)
 Dispersion                     ...        0 min,  0.000 sec (  1.280%)
 classical contributions        ...        0 min,  0.000 sec (  0.781%)
 integral evaluation            ...        0 min,  0.000 sec (  1.699%)
 iterations                     ...        0 min,  0.009 sec ( 88.139%)
 molecular gradient             ...        0 min,  0.001 sec (  5.894%)
 printout                       ...        0 min,  0.000 sec (  0.338%)

         :::::::::::::::::::::::::::::::::::::::::::::::::::::
         ::                     SUMMARY                     ::
         :::::::::::::::::::::::::::::::::::::::::::::::::::::
         :: total energy             -10.565290353805 Eh    ::
         :: gradient norm              0.320891583743 Eh/a0 ::
         :: HOMO-LUMO gap              0.360046595366 eV    ::
         ::.................................................::
         :: SCC energy               -10.625981739426 Eh    ::
         :: -> isotropic ES           -0.047588677322 Eh    ::
         :: -> anisotropic ES          0.013042031632 Eh    ::
         :: -> anisotropic XC         -0.017645374164 Eh    ::
         :: -> dispersion             -0.007497490983 Eh    ::
         :: repulsion energy           0.060696873919 Eh    ::
         :: add. restraining           0.000000000000 Eh    ::
         :: total charge              -0.000000000001 e     ::
         :::::::::::::::::::::::::::::::::::::::::::::::::::::

      ----------------------------------------------------------- 
     |                   =====================                   |
     |                        A N C O P T                        |
     |                   =====================                   |
     |               Approximate Normal Coordinate               |
     |                Rational Function Optimizer                |
      ----------------------------------------------------------- 

          ...................................................
          :                      SETUP                      :
          :.................................................:
          :   optimization level            normal          :
          :   max. optcycles                   200          :
          :   ANC micro-cycles                  20          :
          :   degrees of freedom                24          :
          :.................................................:
          :   RF solver                   davidson          :
          :   write xtbopt.log                true          :
          :   linear?                        false          :
          :   energy convergence         0.5000000E-05 Eh   :
          :   grad. convergence          0.1000000E-02 Eh/α :
          :   maximium RF displ.         1.0000000          :
          :   Hlow (freq-cutoff)         0.1000000E-01      :
          :   Hmax (freq-cutoff)         5.0000000          :
          :   S6 in model hess.         20.0000000          :
          ...................................................

generating ANC from model Hessian ...
Using Lindh-Hessian (1995)
 Shifting diagonal of input Hessian by    1.0205680673509214E-002
 Lowest  eigenvalues of input Hessian
    0.010000    0.000000    0.000000    0.000000    0.000000    0.000000
    0.000000    0.010940    0.011274    0.012630    0.013612    0.017823
    0.019799    0.027133    0.030008    0.036784    0.037670    0.042715
 Highest eigenvalues
    0.247984    0.268848    0.280441    0.306444    0.342694    0.407187


........................................................................
.............................. CYCLE    1 ..............................
........................................................................
   1    -10.6259817 -0.106260E+02  0.277E-04    0.36       0.0  T
   2    -10.6259817  0.531298E-07  0.184E-03    0.36      17.2  T
   3    -10.6259817 -0.146605E-07  0.161E-03    0.36      19.7  T
   4    -10.6259817  0.218780E-09  0.162E-03    0.36      19.6  T
   5    -10.6259817 -0.250592E-07  0.102E-03    0.36      31.0  T
   6    -10.6259817 -0.156721E-07  0.165E-04    0.36     192.0  T
   7    -10.6259817 -0.299472E-09  0.116E-04    0.36     273.2  T
     SCC iter.                  ...        0 min,  0.001 sec
     gradient                   ...        0 min,  0.000 sec
 * total energy  :   -10.5652904 Eh     change       -0.3157242E-08 Eh
   gradient norm :     0.3194959 Eh/α   predicted     0.0000000E+00 (-100.00%)
   displ. norm   :     0.8184872 α      lambda       -0.2481289E+00
   maximum displ.:     0.3913229 α      in ANC's #7, #10, #19, ...

........................................................................
.............................. CYCLE    2 ..............................
........................................................................
   1    -10.7885610 -0.107886E+02  0.211E+00    0.31       0.0  T
   2    -10.7173588  0.712022E-01  0.262E+00    0.59       1.0  T
   3    -10.7337550 -0.163962E-01  0.253E+00    0.43       1.0  T
   4    -10.7798861 -0.461311E-01  0.148E+00    0.59       1.0  T
   5    -10.7797769  0.109229E-03  0.148E+00    0.40       1.0  T
   6    -10.7812406 -0.146367E-02  0.138E+00    0.50       1.0  T
   7    -10.7984883 -0.172478E-01  0.796E-01    0.44       1.0  T
   8    -10.7989950 -0.506662E-03  0.688E-01    0.48       1.0  T
   9    -10.8057000 -0.670503E-02  0.275E-01    0.50       1.0  T
  10    -10.8065195 -0.819499E-03  0.118E-01    0.49       1.0  T
  11    -10.8065202 -0.714212E-06  0.864E-02    0.49       1.0  T
  12    -10.8066298 -0.109574E-03  0.188E-02    0.49       1.7  T
  13    -10.8066332 -0.337539E-05  0.116E-02    0.49       2.7  T
  14    -10.8066346 -0.139738E-05  0.350E-03    0.49       9.0  T
  15    -10.8066348 -0.216723E-06  0.142E-03    0.49      22.2  T
  16    -10.8066348 -0.155785E-07  0.646E-04    0.49      48.9  T
  17    -10.8066348 -0.565711E-08  0.158E-04    0.49     199.7  T
     SCC iter.                  ...        0 min,  0.003 sec
     gradient                   ...        0 min,  0.001 sec
 * total energy  :   -10.7512675 Eh     change       -0.1859772E+00 Eh
   gradient norm :     0.2444869 Eh/α   predicted    -0.2071778E+00 (  11.40%)
   displ. norm   :     0.9140607 α      lambda       -0.2199997E+00
   maximum displ.:     0.4926272 α      in ANC's #20, #10, #17, ...

........................................................................
.............................. CYCLE    3 ..............................
........................................................................
   1    -11.0176048 -0.110176E+02  0.316E+00    0.45       0.0  T
   2    -10.8833560  0.134249E+00  0.407E+00    0.46       1.0  T
   3    -10.8808677  0.248836E-02  0.339E+00    0.64       1.0  T
   4    -10.9483308 -0.674631E-01  0.284E+00    0.50       1.0  T
   5    -10.9540789 -0.574815E-02  0.221E+00    0.54       1.0  T
   6    -10.9948448 -0.407658E-01  0.179E+00    0.43       1.0  T
   7    -11.0439956 -0.491508E-01  0.900E-01    0.51       1.0  T
   8    -11.0429948  0.100082E-02  0.971E-01    0.50       1.0  T
   9    -11.0433297 -0.334938E-03  0.972E-01    0.50       1.0  T
  10    -11.0464581 -0.312842E-02  0.127E-01    0.48       1.0  T
  11    -11.0460976  0.360469E-03  0.222E-01    0.46       1.0  T
  12    -11.0461922 -0.945510E-04  0.219E-01    0.46       1.0  T
  13    -11.0463738 -0.181609E-03  0.128E-01    0.47       1.0  T
  14    -11.0464880 -0.114167E-03  0.320E-02    0.47       1.0  T
  15    -11.0464948 -0.683803E-05  0.294E-02    0.47       1.1  T
  16    -11.0464995 -0.470239E-05  0.652E-03    0.47       4.9  T
  17    -11.0464996 -0.846198E-07  0.272E-03    0.48      11.6  T
  18    -11.0464996 -0.329028E-07  0.200E-04    0.48     158.1  T
  19    -11.0464996 -0.134024E-09  0.455E-05    0.48     695.2  T
     SCC iter.                  ...        0 min,  0.004 sec
     gradient                   ...        0 min,  0.000 sec
 * total energy  :   -10.9086035 Eh     change       -0.1573359E+00 Eh
   gradient norm :     0.1572330 Eh/α   predicted    -0.2019055E+00 (  28.33%)
   displ. norm   :     0.7708981 α      lambda       -0.1032607E+00
   maximum displ.:     0.4238270 α      in ANC's #10, #5, #18, ...

........................................................................
.............................. CYCLE    4 ..............................
........................................................................
   1    -11.0293993 -0.110294E+02  0.496E+00    0.69       0.0  T
   2     -9.0488117  0.198059E+01  0.119E+01    1.03       1.0  T
   3    -11.1082700 -0.205946E+01  0.285E+00    0.88       1.0  T
   4    -10.7849913  0.323279E+00  0.506E+00    0.68       1.0  T
   5    -10.9475481 -0.162557E+00  0.310E+00    0.88       1.0  T
   6    -11.1256838 -0.178136E+00  0.200E+00    0.64       1.0  T
   7    -11.1345999 -0.891619E-02  0.162E+00    0.60       1.0  T
   8    -11.1378477 -0.324773E-02  0.148E+00    0.62       1.0  T
   9    -11.1373823  0.465419E-03  0.135E+00    0.60       1.0  T
  10    -11.1460870 -0.870477E-02  0.963E-01    0.55       1.0  T
  11    -11.1469470 -0.859950E-03  0.822E-01    0.53       1.0  T
  12    -11.1499268 -0.297983E-02  0.465E-01    0.49       1.0  T
  13    -11.1503444 -0.417602E-03  0.249E-01    0.46       1.0  T
  14    -11.1506245 -0.280057E-03  0.115E-01    0.44       1.0  T
  15    -11.1506565 -0.320233E-04  0.617E-02    0.43       1.0  T
  16    -11.1506731 -0.165948E-04  0.782E-03    0.43       4.0  T
  17    -11.1506731  0.123938E-07  0.809E-03    0.42       3.9  T
  18    -11.1506732 -0.178485E-06  0.224E-03    0.42      14.1  T
  19    -11.1506733 -0.721807E-08  0.220E-04    0.42     143.9  T
  20    -11.1506733 -0.279924E-09  0.317E-04    0.42      99.9  T
     SCC iter.                  ...        0 min,  0.003 sec
     gradient                   ...        0 min,  0.001 sec
 * total energy  :   -10.9794328 Eh     change       -0.7082937E-01 Eh
   gradient norm :     0.1459681 Eh/α   predicted    -0.8231339E-01 (  16.21%)
   displ. norm   :     0.7990539 α      lambda       -0.8316679E-01
   maximum displ.:     0.3761957 α      in ANC's #12, #10, #18, ...

........................................................................
.............................. CYCLE    5 ..............................
........................................................................
   1    -11.1936843 -0.111937E+02  0.450E+00    0.80       0.0  T
   2    -10.9821244  0.211560E+00  0.475E+00    1.16       1.0  T
   3    -11.0945793 -0.112455E+00  0.321E+00    0.89       1.0  T
   4    -10.7873628  0.307217E+00  0.441E+00    1.05       1.0  T
   5    -11.2173246 -0.429962E+00  0.120E+00    0.86       1.0  T
   6    -11.2390878 -0.217632E-01  0.116E+00    0.93       1.0  T
   7    -11.2447943 -0.570650E-02  0.694E-01    0.89       1.0  T
   8    -11.2452413 -0.447085E-03  0.448E-01    0.92       1.0  T
   9    -11.2446990  0.542365E-03  0.323E-01    0.90       1.0  T
  10    -11.2453948 -0.695783E-03  0.111E-01    0.91       1.0  T
  11    -11.2455301 -0.135313E-03  0.880E-02    0.91       1.0  T
  12    -11.2455977 -0.676199E-04  0.373E-02    0.91       1.0  T
  13    -11.2456120 -0.142574E-04  0.606E-03    0.91       5.2  T
  14    -11.2456120 -0.493764E-07  0.168E-03    0.91      18.8  T
  15    -11.2456120 -0.958743E-08  0.897E-04    0.91      35.3  T
  16    -11.2456120 -0.879911E-09  0.593E-05    0.91     533.4  T
     SCC iter.                  ...        0 min,  0.003 sec
     gradient                   ...        0 min,  0.000 sec
 * total energy  :   -11.0231092 Eh     change       -0.4367634E-01 Eh
   gradient norm :     0.1996962 Eh/α   predicted    -0.6813385E-01 (  56.00%)
   displ. norm   :     0.6574054 α      lambda       -0.8338780E-01
   maximum displ.:     0.3106486 α      in ANC's #12, #9, #6, ...

........................................................................
.............................. CYCLE    6 ..............................
........................................................................
   1    -11.2251584 -0.112252E+02  0.292E+00    0.75       0.0  T
   2    -10.9888900  0.236268E+00  0.411E+00    1.02       1.0  T
   3    -11.1875991 -0.198709E+00  0.208E+00    0.74       1.0  T
   4    -11.1176871  0.699120E-01  0.254E+00    0.80       1.0  T
   5    -11.2206975 -0.103010E+00  0.128E+00    0.83       1.0  T
   6    -11.2512556 -0.305581E-01  0.401E-01    0.78       1.0  T
   7    -11.2537469 -0.249127E-02  0.500E-01    0.79       1.0  T
   8    -11.2536644  0.824779E-04  0.343E-01    0.80       1.0  T
   9    -11.2538256 -0.161173E-03  0.126E-01    0.78       1.0  T
  10    -11.2539249 -0.993656E-04  0.879E-02    0.78       1.0  T
  11    -11.2539646 -0.396239E-04  0.724E-02    0.78       1.0  T
  12    -11.2540171 -0.524984E-04  0.103E-02    0.78       3.1  T
  13    -11.2540175 -0.429589E-06  0.253E-03    0.78      12.5  T
  14    -11.2540175 -0.159202E-08  0.187E-03    0.78      16.9  T
  15    -11.2540175 -0.132409E-07  0.277E-04    0.78     114.2  T
  16    -11.2540175 -0.850751E-09  0.945E-05    0.78     334.5  T
     SCC iter.                  ...        0 min,  0.003 sec
     gradient                   ...        0 min,  0.001 sec
 * total energy  :   -11.0453454 Eh     change       -0.2223628E-01 Eh
   gradient norm :     0.1927975 Eh/α   predicted    -0.5971325E-01 ( 168.54%)
   displ. norm   :     0.6958169 α      lambda       -0.1011236E+00
   maximum displ.:     0.3497261 α      in ANC's #10, #16, #12, ...

........................................................................
.............................. CYCLE    7 ..............................
........................................................................
   1    -11.2589194 -0.112589E+02  0.291E+00    1.44       0.0  T
   2    -11.2096309  0.492885E-01  0.276E+00    1.49       1.0  T
   3    -11.2460740 -0.364432E-01  0.196E+00    1.49       1.0  T
   4    -11.2065158  0.395583E-01  0.212E+00    1.50       1.0  T
   5    -11.2760261 -0.695103E-01  0.271E-01    1.50       1.0  T
   6    -11.2762627 -0.236659E-03  0.172E-01    1.49       1.0  T
   7    -11.2757577  0.505046E-03  0.194E-01    1.49       1.0  T
   8    -11.2761420 -0.384329E-03  0.104E-01    1.49       1.0  T
   9    -11.2763077 -0.165645E-03  0.397E-02    1.49       1.0  T
  10    -11.2763372 -0.295605E-04  0.165E-02    1.49       1.9  T
  11    -11.2763345  0.270739E-05  0.181E-02    1.49       1.8  T
  12    -11.2763397 -0.521775E-05  0.145E-03    1.49      21.9  T
  13    -11.2763398 -0.173293E-07  0.612E-04    1.49      51.7  T
  14    -11.2763398 -0.471006E-09  0.164E-04    1.49     192.9  T
     SCC iter.                  ...        0 min,  0.002 sec
     gradient                   ...        0 min,  0.001 sec
 * total energy  :   -11.0850485 Eh     change       -0.3970309E-01 Eh
   gradient norm :     0.1841049 Eh/α   predicted    -0.7504187E-01 (  89.01%)
   displ. norm   :     0.6138688 α      lambda       -0.7922898E-01
   maximum displ.:     0.2664399 α      in ANC's #20, #11, #2, ...

........................................................................
.............................. CYCLE    8 ..............................
........................................................................
   1    -11.3186343 -0.113186E+02  0.215E+00    1.87       0.0  T
   2    -11.3024069  0.162274E-01  0.170E+00    1.85       1.0  T
   3    -11.3008948  0.151210E-02  0.170E+00    2.00       1.0  T
   4    -11.3245974 -0.237026E-01  0.624E-01    1.91       1.0  T
   5    -11.3257504 -0.115303E-02  0.448E-01    1.89       1.0  T
   6    -11.3269547 -0.120432E-02  0.327E-01    1.90       1.0  T
   7    -11.3289061 -0.195133E-02  0.121E-01    1.91       1.0  T
   8    -11.3290969 -0.190794E-03  0.621E-02    1.91       1.0  T
   9    -11.3291033 -0.639494E-05  0.451E-02    1.90       1.0  T
  10    -11.3291260 -0.227438E-04  0.162E-02    1.91       1.9  T
  11    -11.3291294 -0.339328E-05  0.655E-03    1.91       4.8  T
  12    -11.3291300 -0.630855E-06  0.211E-03    1.90      15.0  T
  13    -11.3291301 -0.766919E-07  0.319E-04    1.90      99.1  T
  14    -11.3291301 -0.139110E-08  0.860E-05    1.90     367.9  T
     SCC iter.                  ...        0 min,  0.002 sec
     gradient                   ...        0 min,  0.000 sec
 * total energy  :   -11.0987602 Eh     change       -0.1371169E-01 Eh
   gradient norm :     0.2384014 Eh/α   predicted    -0.5454262E-01 ( 297.78%)
   displ. norm   :     0.5515056 α      lambda       -0.7059833E-01
   maximum displ.:     0.3297023 α      in ANC's #5, #4, #10, ...

........................................................................
.............................. CYCLE    9 ..............................
........................................................................
   1    -11.3580242 -0.113580E+02  0.219E+00    2.28       0.0  T
   2    -11.3562418  0.178238E-02  0.175E+00    2.17       1.0  T
   3    -11.3548249  0.141692E-02  0.114E+00    2.28       1.0  T
   4    -11.3361613  0.186636E-01  0.115E+00    2.16       1.0  T
   5    -11.3604593 -0.242980E-01  0.382E-01    2.25       1.0  T
   6    -11.3633691 -0.290983E-02  0.176E-01    2.23       1.0  T
   7    -11.3635428 -0.173694E-03  0.101E-01    2.22       1.0  T
   8    -11.3634013  0.141481E-03  0.119E-01    2.23       1.0  T
   9    -11.3635696 -0.168297E-03  0.589E-02    2.23       1.0  T
  10    -11.3636309 -0.612861E-04  0.441E-03    2.23       7.2  T
  11    -11.3636309 -0.187544E-07  0.202E-03    2.23      15.7  T
  12    -11.3636309 -0.266311E-07  0.565E-04    2.23      56.0  T
  13    -11.3636309 -0.478359E-08  0.681E-05    2.23     464.7  T
     SCC iter.                  ...        0 min,  0.002 sec
     gradient                   ...        0 min,  0.001 sec
 * total energy  :   -11.1278219 Eh     change       -0.2906166E-01 Eh
   gradient norm :     0.0876071 Eh/α   predicted    -0.4603569E-01 (  58.41%)
   displ. norm   :     0.6589218 α      lambda       -0.3333722E-01
   maximum displ.:     0.3770871 α      in ANC's #9, #1, #6, ...

........................................................................
.............................. CYCLE   10 ..............................
........................................................................
   1    -11.3275485 -0.113275E+02  0.177E+00    1.94       0.0  T
   2    -11.3219128  0.563569E-02  0.129E+00    1.93       1.0  T
   3    -11.3171461  0.476668E-02  0.114E+00    1.89       1.0  T
   4    -11.3200162 -0.287006E-02  0.866E-01    1.93       1.0  T
   5    -11.3302158 -0.101996E-01  0.270E-01    1.95       1.0  T
   6    -11.3314739 -0.125808E-02  0.115E-01    1.94       1.0  T
   7    -11.3314557  0.181052E-04  0.104E-01    1.94       1.0  T
   8    -11.3314831 -0.273234E-04  0.727E-02    1.94       1.0  T
   9    -11.3315821 -0.990380E-04  0.101E-02    1.94       3.1  T
  10    -11.3315821 -0.263041E-07  0.847E-03    1.94       3.7  T
  11    -11.3315824 -0.308691E-06  0.542E-03    1.94       5.8  T
  12    -11.3315828 -0.381574E-06  0.840E-04    1.94      37.7  T
  13    -11.3315828 -0.564372E-08  0.170E-04    1.94     186.0  T
     SCC iter.                  ...        0 min,  0.002 sec
     gradient                   ...        0 min,  0.000 sec
 * total energy  :   -11.1290392 Eh     change       -0.1217306E-02 Eh
   gradient norm :     0.1251054 Eh/α   predicted    -0.2390575E-01 (1863.82%)
   displ. norm   :     0.4001350 α      lambda       -0.2770856E-01
   maximum displ.:     0.2121740 α      in ANC's #4, #15, #10, ...

........................................................................
.............................. CYCLE   11 ..............................
........................................................................
   1    -11.3671956 -0.113672E+02  0.991E-01    2.01       0.0  T
   2    -11.3660505  0.114504E-02  0.777E-01    2.05       1.0  T
   3    -11.3608270  0.522355E-02  0.714E-01    1.96       1.0  T
   4    -11.3618541 -0.102709E-02  0.657E-01    2.03       1.0  T
   5    -11.3678718 -0.601777E-02  0.244E-01    2.00       1.0  T
   6    -11.3682709 -0.399088E-03  0.132E-01    2.00       1.0  T
   7    -11.3685490 -0.278075E-03  0.684E-02    2.00       1.0  T
   8    -11.3685807 -0.316575E-04  0.443E-02    2.00       1.0  T
   9    -11.3685940 -0.133409E-04  0.203E-02    1.99       1.6  T
  10    -11.3686007 -0.671124E-05  0.525E-03    2.00       6.0  T
  11    -11.3686008 -0.123122E-06  0.339E-03    2.00       9.3  T
  12    -11.3686010 -0.209566E-06  0.330E-04    2.00      95.7  T
  13    -11.3686010  0.398311E-09  0.263E-04    2.00     120.3  T
     SCC iter.                  ...        0 min,  0.002 sec
     gradient                   ...        0 min,  0.001 sec
 * total energy  :   -11.1438990 Eh     change       -0.1485978E-01 Eh
   gradient norm :     0.0641642 Eh/α   predicted    -0.1607247E-01 (   8.16%)
   displ. norm   :     0.6257518 α      lambda       -0.2289750E-01
   maximum displ.:     0.3465487 α      in ANC's #11, #6, #2, ...

........................................................................
.............................. CYCLE   12 ..............................
........................................................................
   1    -11.3540275 -0.113540E+02  0.199E+00    2.12       0.0  T
   2    -11.3510555  0.297198E-02  0.153E+00    2.09       1.0  T
   3    -11.3368742  0.141814E-01  0.132E+00    2.15       1.0  T
   4    -11.3284670  0.840720E-02  0.127E+00    2.02       1.0  T
   5    -11.3554096 -0.269427E-01  0.357E-01    2.19       1.0  T
   6    -11.3564506 -0.104093E-02  0.265E-01    2.18       1.0  T
   7    -11.3574680 -0.101745E-02  0.950E-02    2.16       1.0  T
   8    -11.3574215  0.465135E-04  0.915E-02    2.16       1.0  T
   9    -11.3574697 -0.481476E-04  0.505E-02    2.16       1.0  T
  10    -11.3575203 -0.506260E-04  0.180E-02    2.16       1.8  T
  11    -11.3575247 -0.444661E-05  0.439E-03    2.16       7.2  T
  12    -11.3575248 -0.220517E-07  0.890E-04    2.16      35.5  T
  13    -11.3575248 -0.657368E-08  0.275E-04    2.16     114.9  T
     SCC iter.                  ...        0 min,  0.004 sec
     gradient                   ...        0 min,  0.001 sec
 * total energy  :   -11.1408267 Eh     change        0.3072247E-02 Eh
   gradient norm :     0.1206765 Eh/α   predicted    -0.1593169E-01 (-618.57%)
   displ. norm   :     0.4030007 α      lambda       -0.3260344E-01
   maximum displ.:     0.2303297 α      in ANC's #5, #9, #15, ...

........................................................................
.............................. CYCLE   13 ..............................
........................................................................
   1    -11.3928880 -0.113929E+02  0.127E+00    2.16       0.0  T
   2    -11.3936490 -0.761023E-03  0.841E-01    2.11       1.0  T
   3    -11.3866162  0.703284E-02  0.802E-01    2.08       1.0  T
   4    -11.3893289 -0.271268E-02  0.661E-01    2.17       1.0  T
   5    -11.3944395 -0.511060E-02  0.239E-01    2.08       1.0  T
   6    -11.3949579 -0.518393E-03  0.475E-02    2.11       1.0  T
   7    -11.3948631  0.948010E-04  0.748E-02    2.10       1.0  T
   8    -11.3949557 -0.926113E-04  0.297E-02    2.10       1.1  T
   9    -11.3949679 -0.122119E-04  0.727E-03    2.11       4.4  T
  10    -11.3949687 -0.838382E-06  0.444E-03    2.11       7.1  T
  11    -11.3949688 -0.106963E-06  0.206E-03    2.11      15.3  T
  12    -11.3949688 -0.126714E-07  0.301E-04    2.11     104.9  T
  13    -11.3949688 -0.791598E-10  0.140E-04    2.11     226.1  T
     SCC iter.                  ...        0 min,  0.002 sec
     gradient                   ...        0 min,  0.001 sec
 * total energy  :   -11.1594848 Eh     change       -0.1865805E-01 Eh
   gradient norm :     0.0652013 Eh/α   predicted    -0.1894927E-01 (   1.56%)
   displ. norm   :     0.6824872 α      lambda       -0.2678113E-01
   maximum displ.:     0.3581211 α      in ANC's #4, #1, #10, ...

........................................................................
.............................. CYCLE   14 ..............................
........................................................................
   1    -11.4063068 -0.114063E+02  0.193E+00    1.95       0.0  T
   2    -11.3857988  0.205081E-01  0.161E+00    2.01       1.0  T
   3    -11.3754681  0.103306E-01  0.177E+00    1.91       1.0  T
   4    -11.4010281 -0.255600E-01  0.896E-01    1.85       1.0  T
   5    -11.4041275 -0.309936E-02  0.673E-01    1.93       1.0  T
   6    -11.4119878 -0.786035E-02  0.171E-01    1.93       1.0  T
   7    -11.4122238 -0.235932E-03  0.894E-02    1.91       1.0  T
   8    -11.4122024  0.213925E-04  0.766E-02    1.92       1.0  T
   9    -11.4121964  0.597198E-05  0.535E-02    1.91       1.0  T
  10    -11.4122567 -0.603067E-04  0.161E-02    1.91       2.0  T
  11    -11.4122598 -0.306535E-05  0.500E-03    1.91       6.3  T
  12    -11.4122600 -0.246783E-06  0.106E-03    1.91      29.8  T
  13    -11.4122600 -0.492163E-08  0.553E-04    1.91      57.2  T
  14    -11.4122600 -0.621075E-09  0.736E-05    1.91     429.9  T
     SCC iter.                  ...        0 min,  0.004 sec
     gradient                   ...        0 min,  0.000 sec
 * total energy  :   -11.1700844 Eh     change       -0.1059964E-01 Eh
   gradient norm :     0.1676077 Eh/α   predicted    -0.1962773E-01 (  85.17%)
   displ. norm   :     0.6007916 α      lambda       -0.3825196E-01
   maximum displ.:     0.2305775 α      in ANC's #23, #2, #22, ...

........................................................................
.............................. CYCLE   15 ..............................
........................................................................
   1    -11.4260901 -0.114261E+02  0.146E+00    1.89       0.0  T
   2    -11.4243177  0.177241E-02  0.105E+00    2.01       1.0  T
   3    -11.4127634  0.115542E-01  0.105E+00    1.80       1.0  T
   4    -11.4142215 -0.145802E-02  0.907E-01    1.91       1.0  T
   5    -11.4272358 -0.130143E-01  0.136E-01    1.94       1.0  T
   6    -11.4273518 -0.116079E-03  0.650E-02    1.94       1.0  T
   7    -11.4272259  0.125918E-03  0.990E-02    1.93       1.0  T
   8    -11.4273740 -0.148083E-03  0.383E-02    1.94       1.0  T
   9    -11.4273856 -0.116193E-04  0.523E-03    1.93       6.1  T
  10    -11.4273856  0.378573E-07  0.301E-03    1.94      10.5  T
  11    -11.4273856 -0.504919E-07  0.982E-04    1.93      32.2  T
  12    -11.4273857 -0.127717E-07  0.330E-04    1.93      95.8  T
     SCC iter.                  ...        0 min,  0.002 sec
     gradient                   ...        0 min,  0.001 sec
 * total energy  :   -11.2095598 Eh     change       -0.3947537E-01 Eh
   gradient norm :     0.1277616 Eh/α   predicted    -0.2602952E-01 ( -34.06%)
   displ. norm   :     0.8680992 α      lambda       -0.9176911E-01
   maximum displ.:     0.5469269 α      in ANC's #23, #13, #22, ...

........................................................................
.............................. CYCLE   16 ..............................
........................................................................
   1    -11.4550413 -0.114550E+02  0.232E+00    1.60       0.0  T
   2    -11.3437483  0.111293E+00  0.291E+00    1.53       1.0  T
   3    -11.3891180 -0.453697E-01  0.266E+00    1.86       1.0  T
   4    -11.4449283 -0.558103E-01  0.112E+00    1.61       1.0  T
   5    -11.4596131 -0.146848E-01  0.667E-01    1.64       1.0  T
   6    -11.4636648 -0.405175E-02  0.367E-01    1.62       1.0  T
   7    -11.4639312 -0.266390E-03  0.308E-01    1.61       1.0  T
   8    -11.4640067 -0.754511E-04  0.200E-01    1.60       1.0  T
   9    -11.4645225 -0.515788E-03  0.724E-02    1.60       1.0  T
  10    -11.4645785 -0.560604E-04  0.244E-02    1.59       1.3  T
  11    -11.4645784  0.104204E-06  0.155E-02    1.59       2.0  T
  12    -11.4645829 -0.451150E-05  0.316E-03    1.59      10.0  T
  13    -11.4645831 -0.122008E-06  0.840E-04    1.59      37.7  T
  14    -11.4645831 -0.634888E-08  0.273E-04    1.59     116.0  T
     SCC iter.                  ...        0 min,  0.003 sec
     gradient                   ...        0 min,  0.000 sec
 * total energy  :   -11.2574432 Eh     change       -0.4788340E-01 Eh
   gradient norm :     0.2323787 Eh/α   predicted    -0.8046313E-01 (  68.04%)
   displ. norm   :     0.6977397 α      lambda       -0.4384222E-01
   maximum displ.:     0.2980718 α      in ANC's #4, #1, #6, ...

........................................................................
.............................. CYCLE   17 ..............................
........................................................................
   1    -11.4247620 -0.114248E+02  0.224E+00    1.87       0.0  T
   2    -11.4121462  0.126159E-01  0.184E+00    2.02       1.0  T
   3    -11.3340961  0.780500E-01  0.269E+00    1.83       1.0  T
   4    -11.4019538 -0.678577E-01  0.129E+00    1.87       1.0  T
   5    -11.4266556 -0.247018E-01  0.301E-01    1.92       1.0  T
   6    -11.4267132 -0.575653E-04  0.228E-01    1.92       1.0  T
   7    -11.4272242 -0.511011E-03  0.190E-01    1.92       1.0  T
   8    -11.4275385 -0.314336E-03  0.110E-01    1.92       1.0  T
   9    -11.4276480 -0.109469E-03  0.318E-02    1.91       1.0  T
  10    -11.4276571 -0.908436E-05  0.122E-02    1.91       2.6  T
  11    -11.4276587 -0.159073E-05  0.268E-03    1.91      11.8  T
  12    -11.4276588 -0.953068E-07  0.102E-03    1.91      30.9  T
  13    -11.4276588 -0.131178E-07  0.296E-04    1.91     106.8  T
  14    -11.4276588 -0.500512E-09  0.132E-04    1.91     239.4  T
     SCC iter.                  ...        0 min,  0.003 sec
     gradient                   ...        0 min,  0.001 sec
 * total energy  :   -11.2609709 Eh     change       -0.3527699E-02 Eh
   gradient norm :     0.1918073 Eh/α   predicted    -0.3259314E-01 ( 823.92%)
   displ. norm   :     0.6594466 α      lambda       -0.4546806E-01
   maximum displ.:     0.2931722 α      in ANC's #4, #8, #9, ...

........................................................................
.............................. CYCLE   18 ..............................
........................................................................
   1    -11.4787400 -0.114787E+02  0.143E+00    2.16       0.0  T
   2    -11.4707157  0.802435E-02  0.141E+00    2.17       1.0  T
   3    -11.4688963  0.181941E-02  0.109E+00    2.12       1.0  T
   4    -11.4673477  0.154859E-02  0.976E-01    2.20       1.0  T
   5    -11.4817909 -0.144432E-01  0.142E-01    2.16       1.0  T
   6    -11.4818189 -0.280516E-04  0.104E-01    2.17       1.0  T
   7    -11.4817457  0.732314E-04  0.987E-02    2.16       1.0  T
   8    -11.4818350 -0.893288E-04  0.555E-02    2.16       1.0  T
   9    -11.4818982 -0.631714E-04  0.207E-02    2.16       1.5  T
  10    -11.4819035 -0.532923E-05  0.566E-03    2.16       5.6  T
  11    -11.4819036 -0.993373E-07  0.203E-03    2.16      15.6  T
  12    -11.4819036 -0.432444E-07  0.341E-04    2.16      92.7  T
  13    -11.4819036  0.549928E-09  0.224E-04    2.16     141.3  T
     SCC iter.                  ...        0 min,  0.003 sec
     gradient                   ...        0 min,  0.001 sec
 * total energy  :   -11.2669159 Eh     change       -0.5944980E-02 Eh
   gradient norm :     0.1950342 Eh/α   predicted    -0.3262029E-01 ( 448.70%)
   displ. norm   :     0.5496713 α      lambda       -0.5574134E-01
   maximum displ.:     0.2703488 α      in ANC's #4, #22, #23, ...

........................................................................
.............................. CYCLE   19 ..............................
........................................................................
   1    -11.5059116 -0.115059E+02  0.152E+00    2.00       0.0  T
   2    -11.4889500  0.169615E-01  0.162E+00    1.86       1.0  T
   3    -11.4976492 -0.869912E-02  0.108E+00    2.00       1.0  T
   4    -11.4983757 -0.726559E-03  0.912E-01    1.97       1.0  T
   5    -11.5090982 -0.107225E-01  0.209E-01    1.96       1.0  T
   6    -11.5097344 -0.636119E-03  0.663E-02    1.97       1.0  T
   7    -11.5097231  0.112881E-04  0.399E-02    1.97       1.0  T
   8    -11.5096885  0.346076E-04  0.497E-02    1.97       1.0  T
   9    -11.5097341 -0.456439E-04  0.249E-02    1.97       1.3  T
  10    -11.5097413 -0.716890E-05  0.680E-03    1.97       4.6  T
  11    -11.5097416 -0.300294E-06  0.219E-03    1.97      14.4  T
  12    -11.5097416 -0.642805E-08  0.921E-04    1.97      34.3  T
  13    -11.5097416 -0.129300E-07  0.188E-04    1.97     168.1  T
     SCC iter.                  ...        0 min,  0.003 sec
     gradient                   ...        0 min,  0.001 sec
 * total energy  :   -11.2755374 Eh     change       -0.8621501E-02 Eh
   gradient norm :     0.2383184 Eh/α   predicted    -0.3629139E-01 ( 320.94%)
   displ. norm   :     0.5206386 α      lambda       -0.6898173E-01
   maximum displ.:     0.2174042 α      in ANC's #10, #23, #21, ...

........................................................................
.............................. CYCLE   20 ..............................
........................................................................
   1    -11.4642208 -0.114642E+02  0.129E+00    1.77       0.0  T
   2    -11.4487938  0.154271E-01  0.152E+00    1.68       1.0  T
   3    -11.4578463 -0.905253E-02  0.102E+00    1.83       1.0  T
   4    -11.4532262  0.462009E-02  0.995E-01    1.69       1.0  T
   5    -11.4666772 -0.134510E-01  0.261E-01    1.74       1.0  T
   6    -11.4675431 -0.865850E-03  0.122E-01    1.74       1.0  T
   7    -11.4677355 -0.192436E-03  0.749E-02    1.74       1.0  T
   8    -11.4678114 -0.758949E-04  0.334E-02    1.74       1.0  T
   9    -11.4678150 -0.361087E-05  0.127E-02    1.74       2.5  T
  10    -11.4678165 -0.151629E-05  0.699E-03    1.74       4.5  T
  11    -11.4678171 -0.607682E-06  0.136E-03    1.74      23.2  T
  12    -11.4678171 -0.259122E-08  0.635E-04    1.74      49.8  T
  13    -11.4678171 -0.661440E-08  0.950E-05    1.74     332.9  T
     SCC iter.                  ...        0 min,  0.002 sec
     gradient                   ...        0 min,  0.000 sec
 * total energy  :   -11.2651860 Eh     change        0.1035138E-01 Eh
   gradient norm :     0.2715264 Eh/α   predicted    -0.4384013E-01 (-523.52%)
   displ. norm   :     0.5025288 α      lambda       -0.8073214E-01
   maximum displ.:     0.2437702 α      in ANC's #13, #15, #23, ...
 * RMSD in coord.:     1.8300957 α      energy gain  -0.6998956E+00 Eh

generating ANC from model Hessian ...
Using Lindh-Hessian (1995)
 Shifting diagonal of input Hessian by    1.6757984502141235E-002
 Lowest  eigenvalues of input Hessian
    0.010000    0.016564    0.016687    0.000000    0.000000    0.000000
    0.000000    0.000000    0.000000    0.016945    0.017272    0.019054
    0.024922    0.030647    0.043105    0.054676    0.076492    0.127202
 Highest eigenvalues
    0.668844    0.690321    0.884869    1.031769    1.434001    2.110936


........................................................................
.............................. CYCLE   21 ..............................
........................................................................
   1    -11.4667964 -0.114668E+02  0.145E+00    2.29       0.0  T
   2    -11.4580291  0.876733E-02  0.119E+00    2.26       1.0  T
   3    -11.4573485  0.680554E-03  0.116E+00    2.27       1.0  T
   4    -11.4684408 -0.110923E-01  0.681E-01    2.30       1.0  T
   5    -11.4722834 -0.384267E-02  0.223E-01    2.29       1.0  T
   6    -11.4727829 -0.499424E-03  0.140E-01    2.29       1.0  T
   7    -11.4731002 -0.317371E-03  0.640E-02    2.29       1.0  T
   8    -11.4731418 -0.416085E-04  0.240E-02    2.29       1.3  T
   9    -11.4731457 -0.390252E-05  0.135E-02    2.29       2.3  T
  10    -11.4731472 -0.143991E-05  0.486E-03    2.29       6.5  T
  11    -11.4731472 -0.323076E-07  0.189E-03    2.29      16.7  T
  12    -11.4731472 -0.180877E-07  0.779E-04    2.29      40.6  T
  13    -11.4731472 -0.999643E-08  0.255E-04    2.29     124.1  T
     SCC iter.                  ...        0 min,  0.002 sec
     gradient                   ...        0 min,  0.001 sec
 * total energy  :   -11.2832975 Eh     change       -0.1811150E-01 Eh
   gradient norm :     0.1294590 Eh/α   predicted     0.0000000E+00 (-100.00%)
   displ. norm   :     0.3954820 α      lambda       -0.4298640E-01
   maximum displ.:     0.2623783 α      in ANC's #15, #13, #16, ...

........................................................................
.............................. CYCLE   22 ..............................
........................................................................
   1    -11.5469592 -0.115470E+02  0.890E-01    2.37       0.0  T
   2    -11.5452546  0.170453E-02  0.670E-01    2.36       1.0  T
   3    -11.5342295  0.110252E-01  0.967E-01    2.37       1.0  T
   4    -11.5470436 -0.128142E-01  0.141E-01    2.37       1.0  T
   5    -11.5467689  0.274766E-03  0.178E-01    2.37       1.0  T
   6    -11.5473724 -0.603568E-03  0.408E-02    2.37       1.0  T
   7    -11.5473802 -0.779166E-05  0.174E-02    2.37       1.8  T
   8    -11.5473824 -0.220727E-05  0.832E-03    2.37       3.8  T
   9    -11.5473831 -0.706732E-06  0.334E-03    2.37       9.5  T
  10    -11.5473832 -0.711456E-07  0.157E-03    2.37      20.2  T
  11    -11.5473832 -0.278158E-07  0.503E-04    2.37      62.9  T
  12    -11.5473832  0.150206E-08  0.302E-04    2.37     104.5  T
     SCC iter.                  ...        0 min,  0.003 sec
     gradient                   ...        0 min,  0.001 sec
 * total energy  :   -11.3098124 Eh     change       -0.2651494E-01 Eh
   gradient norm :     0.0640036 Eh/α   predicted    -0.2485485E-01 (  -6.26%)
   displ. norm   :     0.3390683 α      lambda       -0.1397732E-01
   maximum displ.:     0.1361776 α      in ANC's #7, #8, #16, ...

........................................................................
.............................. CYCLE   23 ..............................
........................................................................
   1    -11.5671148 -0.115671E+02  0.110E+00    2.38       0.0  T
   2    -11.5665957  0.519179E-03  0.740E-01    2.36       1.0  T
   3    -11.5445948  0.220009E-01  0.122E+00    2.40       1.0  T
   4    -11.5671156 -0.225208E-01  0.108E-01    2.38       1.0  T
   5    -11.5669940  0.121632E-03  0.124E-01    2.37       1.0  T
   6    -11.5672439 -0.249944E-03  0.440E-02    2.37       1.0  T
   7    -11.5672681 -0.241488E-04  0.193E-02    2.37       1.6  T
   8    -11.5672734 -0.532594E-05  0.702E-03    2.37       4.5  T
   9    -11.5672737 -0.320873E-06  0.285E-03    2.37      11.1  T
  10    -11.5672738 -0.560706E-07  0.134E-03    2.37      23.5  T
  11    -11.5672738 -0.102145E-07  0.422E-04    2.37      74.9  T
  12    -11.5672738  0.529248E-10  0.119E-04    2.37     266.5  T
     SCC iter.                  ...        0 min,  0.003 sec
     gradient                   ...        0 min,  0.001 sec
 * total energy  :   -11.3149110 Eh     change       -0.5098545E-02 Eh
   gradient norm :     0.0416794 Eh/α   predicted    -0.7792124E-02 (  52.83%)
   displ. norm   :     0.2682987 α      lambda       -0.5086124E-02
   maximum displ.:     0.1563350 α      in ANC's #6, #7, #5, ...

........................................................................
.............................. CYCLE   24 ..............................
........................................................................
   1    -11.5546419 -0.115546E+02  0.934E-01    2.36       0.0  T
   2    -11.5546495 -0.755332E-05  0.610E-01    2.36       1.0  T
   3    -11.5535543  0.109522E-02  0.261E-01    2.37       1.0  T
   4    -11.5545004 -0.946172E-03  0.969E-02    2.36       1.0  T
   5    -11.5546479 -0.147426E-03  0.434E-02    2.36       1.0  T
   6    -11.5546326  0.152928E-04  0.489E-02    2.36       1.0  T
   7    -11.5546725 -0.398963E-04  0.682E-03    2.36       4.6  T
   8    -11.5546725 -0.523025E-07  0.337E-03    2.36       9.4  T
   9    -11.5546726 -0.699331E-07  0.923E-04    2.36      34.3  T
  10    -11.5546726 -0.429857E-08  0.443E-04    2.36      71.4  T
     SCC iter.                  ...        0 min,  0.002 sec
     gradient                   ...        0 min,  0.001 sec
 * total energy  :   -11.3172657 Eh     change       -0.2354759E-02 Eh
   gradient norm :     0.0193372 Eh/α   predicted    -0.2726125E-02 (  15.77%)
   displ. norm   :     0.2490337 α      lambda       -0.1731304E-02
   maximum displ.:     0.1704382 α      in ANC's #8, #5, #1, ...

........................................................................
.............................. CYCLE   25 ..............................
........................................................................
   1    -11.5565101 -0.115565E+02  0.697E-01    2.35       0.0  T
   2    -11.5565115 -0.139273E-05  0.451E-01    2.35       1.0  T
   3    -11.5560378  0.473650E-03  0.146E-01    2.35       1.0  T
   4    -11.5564858 -0.447968E-03  0.533E-02    2.34       1.0  T
   5    -11.5565167 -0.308959E-04  0.251E-02    2.35       1.3  T
   6    -11.5565198 -0.305415E-05  0.358E-03    2.35       8.8  T
   7    -11.5565195  0.235604E-06  0.476E-03    2.35       6.6  T
   8    -11.5565199 -0.333804E-06  0.131E-03    2.35      24.1  T
   9    -11.5565199 -0.177778E-08  0.776E-04    2.35      40.7  T
  10    -11.5565199 -0.771259E-08  0.297E-04    2.35     106.6  T
     SCC iter.                  ...        0 min,  0.002 sec
     gradient                   ...        0 min,  0.001 sec
 * total energy  :   -11.3180813 Eh     change       -0.8156029E-03 Eh
   gradient norm :     0.0228225 Eh/α   predicted    -0.9193363E-03 (  12.72%)
   displ. norm   :     0.2147277 α      lambda       -0.1122295E-02
   maximum displ.:     0.1322747 α      in ANC's #1, #5, #7, ...

........................................................................
.............................. CYCLE   26 ..............................
........................................................................
   1    -11.5613400 -0.115613E+02  0.465E-01    2.35       0.0  T
   2    -11.5612209  0.119109E-03  0.309E-01    2.34       1.0  T
   3    -11.5571116  0.410928E-02  0.530E-01    2.36       1.0  T
   4    -11.5613316 -0.422003E-02  0.463E-02    2.35       1.0  T
   5    -11.5613431 -0.114930E-04  0.385E-02    2.35       1.0  T
   6    -11.5613654 -0.222935E-04  0.148E-02    2.35       2.1  T
   7    -11.5613670 -0.156959E-05  0.460E-03    2.35       6.9  T
   8    -11.5613672 -0.220478E-06  0.185E-03    2.35      17.1  T
   9    -11.5613672 -0.128364E-07  0.917E-04    2.35      34.5  T
  10    -11.5613672 -0.965729E-09  0.569E-04    2.35      55.5  T
     SCC iter.                  ...        0 min,  0.002 sec
     gradient                   ...        0 min,  0.001 sec
 * total energy  :   -11.3188320 Eh     change       -0.7507103E-03 Eh
   gradient norm :     0.0144264 Eh/α   predicted    -0.5870228E-03 ( -21.80%)
   displ. norm   :     0.2775556 α      lambda       -0.7954192E-03
   maximum displ.:     0.1642355 α      in ANC's #5, #1, #7, ...

........................................................................
.............................. CYCLE   27 ..............................
........................................................................
   1    -11.5625742 -0.115626E+02  0.670E-01    2.36       0.0  T
   2    -11.5624593  0.114919E-03  0.438E-01    2.35       1.0  T
   3    -11.5562259  0.623343E-02  0.651E-01    2.38       1.0  T
   4    -11.5625763 -0.635043E-02  0.403E-02    2.36       1.0  T
   5    -11.5625488  0.274980E-04  0.535E-02    2.36       1.0  T
   6    -11.5626016 -0.527897E-04  0.158E-02    2.36       2.0  T
   7    -11.5626030 -0.143683E-05  0.609E-03    2.36       5.2  T
   8    -11.5626034 -0.348529E-06  0.165E-03    2.36      19.1  T
   9    -11.5626034 -0.697808E-08  0.955E-04    2.36      33.1  T
  10    -11.5626034 -0.899024E-08  0.403E-04    2.36      78.5  T
     SCC iter.                  ...        0 min,  0.002 sec
     gradient                   ...        0 min,  0.001 sec
 * total energy  :   -11.3193527 Eh     change       -0.5206540E-03 Eh
   gradient norm :     0.0086067 Eh/α   predicted    -0.4283507E-03 ( -17.73%)
   displ. norm   :     0.2876766 α      lambda       -0.4304906E-03
   maximum displ.:     0.1703165 α      in ANC's #5, #1, #7, ...

........................................................................
.............................. CYCLE   28 ..............................
........................................................................
   1    -11.5611006 -0.115611E+02  0.705E-01    2.37       0.0  T
   2    -11.5610743  0.263215E-04  0.457E-01    2.37       1.0  T
   3    -11.5580702  0.300408E-02  0.387E-01    2.36       1.0  T
   4    -11.5610540 -0.298382E-02  0.665E-02    2.37       1.0  T
   5    -11.5611004 -0.463752E-04  0.347E-02    2.37       1.0  T
   6    -11.5610914  0.893463E-05  0.353E-02    2.37       1.0  T
   7    -11.5611130 -0.215980E-04  0.648E-03    2.37       4.9  T
   8    -11.5611136 -0.568021E-06  0.213E-03    2.37      14.9  T
   9    -11.5611137 -0.520981E-07  0.905E-04    2.37      34.9  T
  10    -11.5611137 -0.124294E-08  0.541E-04    2.37      58.5  T
     SCC iter.                  ...        0 min,  0.003 sec
     gradient                   ...        0 min,  0.001 sec
 * total energy  :   -11.3195559 Eh     change       -0.2032155E-03 Eh
   gradient norm :     0.0113142 Eh/α   predicted    -0.2330577E-03 (  14.68%)
   displ. norm   :     0.1598473 α      lambda       -0.2915013E-03
   maximum displ.:     0.1033820 α      in ANC's #5, #1, #7, ...

........................................................................
.............................. CYCLE   29 ..............................
........................................................................
   1    -11.5656931 -0.115657E+02  0.168E-01    2.39       0.0  T
   2    -11.5656364  0.567028E-04  0.120E-01    2.39       1.0  T
   3    -11.5652574  0.378935E-03  0.186E-01    2.40       1.0  T
   4    -11.5656733 -0.415891E-03  0.385E-02    2.39       1.0  T
   5    -11.5656975 -0.242143E-04  0.215E-02    2.39       1.5  T
   6    -11.5657058 -0.825068E-05  0.645E-03    2.39       4.9  T
   7    -11.5657058 -0.543227E-08  0.281E-03    2.39      11.3  T
   8    -11.5657058 -0.381462E-07  0.119E-03    2.39      26.7  T
   9    -11.5657059 -0.124800E-07  0.505E-04    2.39      62.6  T
  10    -11.5657059 -0.219409E-08  0.103E-04    2.39     305.9  T
     SCC iter.                  ...        0 min,  0.002 sec
     gradient                   ...        0 min,  0.001 sec
 * total energy  :   -11.3196609 Eh     change       -0.1049801E-03 Eh
   gradient norm :     0.0075577 Eh/α   predicted    -0.1494735E-03 (  42.38%)
   displ. norm   :     0.0486007 α      lambda       -0.6518846E-04
   maximum displ.:     0.0374827 α      in ANC's #1, #7, #5, ...

........................................................................
.............................. CYCLE   30 ..............................
........................................................................
   1    -11.5639940 -0.115640E+02  0.118E-01    2.39       0.0  T
   2    -11.5639805  0.134503E-04  0.823E-02    2.39       1.0  T
   3    -11.5637157  0.264807E-03  0.135E-01    2.39       1.0  T
   4    -11.5639892 -0.273490E-03  0.185E-02    2.39       1.7  T
   5    -11.5639960 -0.676716E-05  0.745E-03    2.39       4.2  T
   6    -11.5639966 -0.608795E-06  0.410E-03    2.39       7.7  T
   7    -11.5639967 -0.858016E-07  0.729E-04    2.39      43.4  T
   8    -11.5639967 -0.472240E-08  0.457E-04    2.39      69.2  T
     SCC iter.                  ...        0 min,  0.002 sec
     gradient                   ...        0 min,  0.002 sec
 * total energy  :   -11.3197060 Eh     change       -0.4509214E-04 Eh
   gradient norm :     0.0027868 Eh/α   predicted    -0.3266984E-04 ( -27.55%)
   displ. norm   :     0.0617560 α      lambda       -0.4138978E-04
   maximum displ.:     0.0509717 α      in ANC's #1, #5, #7, ...

........................................................................
.............................. CYCLE   31 ..............................
........................................................................
   1    -11.5632098 -0.115632E+02  0.975E-02    2.40       0.0  T
   2    -11.5632027  0.709145E-05  0.669E-02    2.40       1.0  T
   3    -11.5630169  0.185836E-03  0.111E-01    2.39       1.0  T
   4    -11.5632070 -0.190105E-03  0.144E-02    2.40       2.2  T
   5    -11.5632098 -0.280735E-05  0.105E-02    2.40       3.0  T
   6    -11.5632112 -0.142639E-05  0.482E-03    2.40       6.6  T
   7    -11.5632114 -0.181924E-06  0.791E-04    2.40      40.0  T
   8    -11.5632114 -0.241614E-08  0.448E-04    2.40      70.6  T
     SCC iter.                  ...        0 min,  0.001 sec
     gradient                   ...        0 min,  0.001 sec
 * total energy  :   -11.3197364 Eh     change       -0.3046621E-04 Eh
   gradient norm :     0.0018375 Eh/α   predicted    -0.2077424E-04 ( -31.81%)
   displ. norm   :     0.1211553 α      lambda       -0.3370806E-04
   maximum displ.:     0.0940764 α      in ANC's #1, #5, #7, ...

........................................................................
.............................. CYCLE   32 ..............................
........................................................................
   1    -11.5628340 -0.115628E+02  0.182E-01    2.40       0.0  T
   2    -11.5628272  0.683337E-05  0.121E-01    2.40       1.0  T
   3    -11.5623900  0.437205E-03  0.166E-01    2.40       1.0  T
   4    -11.5628304 -0.440397E-03  0.203E-02    2.40       1.6  T
   5    -11.5628307 -0.335718E-06  0.192E-02    2.40       1.6  T
   6    -11.5628357 -0.499035E-05  0.100E-02    2.40       3.1  T
   7    -11.5628366 -0.939223E-06  0.157E-03    2.40      20.2  T
   8    -11.5628366 -0.899544E-08  0.905E-04    2.40      34.9  T
   9    -11.5628366 -0.552357E-08  0.458E-04    2.40      69.1  T
     SCC iter.                  ...        0 min,  0.003 sec
     gradient                   ...        0 min,  0.001 sec
 * total energy  :   -11.3197650 Eh     change       -0.2856604E-04 Eh
   gradient norm :     0.0024497 Eh/α   predicted    -0.1696297E-04 ( -40.62%)
   displ. norm   :     0.0445625 α      lambda       -0.1372384E-04
   maximum displ.:     0.0363318 α      in ANC's #1, #5, #9, ...

........................................................................
.............................. CYCLE   33 ..............................
........................................................................
   1    -11.5632147 -0.115632E+02  0.423E-02    2.40       0.0  T
   2    -11.5632143  0.350222E-06  0.270E-02    2.40       1.2  T
   3    -11.5631955  0.188610E-04  0.367E-02    2.40       1.0  T
   4    -11.5632146 -0.191851E-04  0.468E-03    2.40       6.8  T
   5    -11.5632147 -0.710639E-07  0.298E-03    2.40      10.6  T
   6    -11.5632144  0.283337E-06  0.426E-03    2.40       7.4  T
   7    -11.5632148 -0.368174E-06  0.331E-04    2.40      95.5  T
   8    -11.5632148 -0.270587E-09  0.220E-04    2.40     144.0  T
     SCC iter.                  ...        0 min,  0.001 sec
     gradient                   ...        0 min,  0.001 sec
 * total energy  :   -11.3197754 Eh     change       -0.1040671E-04 Eh
   gradient norm :     0.0015453 Eh/α   predicted    -0.6876334E-05 ( -33.92%)
   displ. norm   :     0.0987901 α      lambda       -0.1527411E-04
   maximum displ.:     0.0758359 α      in ANC's #1, #5, #7, ...

........................................................................
.............................. CYCLE   34 ..............................
........................................................................
   1    -11.5640623 -0.115641E+02  0.117E-01    2.40       0.0  T
   2    -11.5640563  0.596891E-05  0.758E-02    2.39       1.0  T
   3    -11.5638124  0.243873E-03  0.127E-01    2.40       1.0  T
   4    -11.5640578 -0.245353E-03  0.193E-02    2.40       1.6  T
   5    -11.5640622 -0.446193E-05  0.954E-03    2.39       3.3  T
   6    -11.5640635 -0.131133E-05  0.493E-03    2.39       6.4  T
   7    -11.5640637 -0.207899E-06  0.142E-03    2.40      22.2  T
   8    -11.5640638 -0.128302E-07  0.773E-04    2.39      40.9  T
   9    -11.5640638 -0.633496E-08  0.370E-04    2.40      85.5  T
     SCC iter.                  ...        0 min,  0.002 sec
     gradient                   ...        0 min,  0.001 sec
 * total energy  :   -11.3197881 Eh     change       -0.1264480E-04 Eh
   gradient norm :     0.0018109 Eh/α   predicted    -0.7671423E-05 ( -39.33%)
   displ. norm   :     0.0722275 α      lambda       -0.7372171E-05
   maximum displ.:     0.0627704 α      in ANC's #1, #5, #6, ...

........................................................................
.............................. CYCLE   35 ..............................
........................................................................
   1    -11.5637916 -0.115638E+02  0.830E-02    2.39       0.0  T
   2    -11.5637911  0.559678E-06  0.523E-02    2.39       1.0  T
   3    -11.5637401  0.510297E-04  0.520E-02    2.39       1.0  T
   4    -11.5637911 -0.510564E-04  0.821E-03    2.39       3.9  T
   5    -11.5637915 -0.379372E-06  0.555E-03    2.39       5.7  T
   6    -11.5637915  0.285609E-07  0.500E-03    2.39       6.3  T
   7    -11.5637919 -0.392505E-06  0.675E-04    2.39      46.9  T
   8    -11.5637919 -0.473132E-08  0.302E-04    2.39     104.9  T
     SCC iter.                  ...        0 min,  0.002 sec
     gradient                   ...        0 min,  0.001 sec
 * total energy  :   -11.3197964 Eh     change       -0.8343754E-05 Eh
   gradient norm :     0.0016342 Eh/α   predicted    -0.3694974E-05 ( -55.72%)
   displ. norm   :     0.0525015 α      lambda       -0.7336333E-05
   maximum displ.:     0.0435991 α      in ANC's #1, #5, #6, ...

........................................................................
.............................. CYCLE   36 ..............................
........................................................................
   1    -11.5635216 -0.115635E+02  0.689E-02    2.39       0.0  T
   2    -11.5635214  0.146468E-06  0.444E-02    2.39       1.0  T
   3    -11.5635006  0.208321E-04  0.323E-02    2.39       1.0  T
   4    -11.5635210 -0.204131E-04  0.711E-03    2.39       4.4  T
   5    -11.5635215 -0.473094E-06  0.492E-03    2.39       6.4  T
   6    -11.5635215  0.140402E-07  0.436E-03    2.39       7.3  T
   7    -11.5635217 -0.278293E-06  0.544E-04    2.39      58.1  T
   8    -11.5635217 -0.362185E-08  0.245E-04    2.39     129.0  T
     SCC iter.                  ...        0 min,  0.002 sec
     gradient                   ...        0 min,  0.001 sec
 * total energy  :   -11.3198043 Eh     change       -0.7903863E-05 Eh
   gradient norm :     0.0006614 Eh/α   predicted    -0.3674172E-05 ( -53.51%)
   displ. norm   :     0.0617287 α      lambda       -0.5027563E-05
   maximum displ.:     0.0520332 α      in ANC's #1, #5, #6, ...

........................................................................
.............................. CYCLE   37 ..............................
........................................................................
   1    -11.5633074 -0.115633E+02  0.728E-02    2.39       0.0  T
   2    -11.5633072  0.141119E-06  0.457E-02    2.39       1.0  T
   3    -11.5632865  0.207779E-04  0.308E-02    2.39       1.0  T
   4    -11.5633075 -0.210440E-04  0.425E-03    2.39       7.4  T
   5    -11.5633074  0.596339E-07  0.309E-03    2.39      10.2  T
   6    -11.5633075 -0.677997E-07  0.477E-04    2.39      66.3  T
   7    -11.5633075  0.250566E-08  0.558E-04    2.39      56.7  T
     SCC iter.                  ...        0 min,  0.002 sec
     gradient                   ...        0 min,  0.001 sec
 * total energy  :   -11.3198097 Eh     change       -0.5345810E-05 Eh
   gradient norm :     0.0007722 Eh/α   predicted    -0.2519081E-05 ( -52.88%)
   displ. norm   :     0.0718113 α      lambda       -0.3467154E-05
   maximum displ.:     0.0597944 α      in ANC's #1, #5, #2, ...

........................................................................
.............................. CYCLE   38 ..............................
........................................................................
   1    -11.5632891 -0.115633E+02  0.809E-02    2.39       0.0  T
   2    -11.5632891  0.178344E-07  0.515E-02    2.39       1.0  T
   3    -11.5632819  0.712084E-05  0.213E-02    2.39       1.5  T
   4    -11.5632891 -0.717657E-05  0.494E-03    2.39       6.4  T
   5    -11.5632884  0.697062E-06  0.641E-03    2.39       4.9  T
   6    -11.5632891 -0.695957E-06  0.217E-03    2.39      14.6  T
   7    -11.5632892 -0.982752E-07  0.370E-04    2.39      85.4  T
   8    -11.5632892 -0.158550E-08  0.183E-04    2.39     172.7  T
     SCC iter.                  ...        0 min,  0.002 sec
     gradient                   ...        0 min,  0.001 sec
 * total energy  :   -11.3198131 Eh     change       -0.3492370E-05 Eh
   gradient norm :     0.0006826 Eh/α   predicted    -0.1737651E-05 ( -50.24%)
   displ. norm   :     0.0621652 α      lambda       -0.1939625E-05
   maximum displ.:     0.0517946 α      in ANC's #1, #5, #2, ...

   *** GEOMETRY OPTIMIZATION CONVERGED AFTER 38 ITERATIONS ***

------------------------------------------------------------------------
 total energy gain   :        -0.7545228 Eh     -473.4702 kcal/mol
 total RMSD          :         2.2658611 a0        1.1990 Å
 total power (kW/mol):       -52.1315609 (step)********** (real)
------------------------------------------------------------------------

 ANCopt (total)                0 d,  0 h,  0 min,  0.129 sec
 optimizer setup                ...        0 min,  0.000 sec (  0.020%)
 model hessian                  ...        0 min,  0.000 sec (  0.198%)
 ANC generation                 ...        0 min,  0.000 sec (  0.088%)
 coordinate transformation      ...        0 min,  0.000 sec (  0.072%)
 single point calculation       ...        0 min,  0.125 sec ( 96.776%)
 optimization log               ...        0 min,  0.001 sec (  0.886%)
 hessian update                 ...        0 min,  0.001 sec (  0.850%)
 rational function              ...        0 min,  0.001 sec (  0.612%)

================
 final structure:
================
10
 xtb: 6.5.1 (conda-forge)
Be           0.54980054620103        0.02762134869586        0.10402632272198
B            2.09561908228459        0.62722893626596        0.47969318245700
B            0.31121217570586       -0.14676207253722        1.80317365693809
C            1.81101592976680        0.44777666232600        1.83156455023184
C            1.16186976699681        0.12725819474887        3.03999381260995
C            1.36908895183437        0.14026233668655        4.35205373249017
H            0.61258139105262       -0.20095176957754        5.04305925189723
H            2.29631373748889        0.48502870372756        4.78873124724573
H            0.50497195961599        1.01143706531862        7.56707559680702
H            0.37552645905354        0.57614759434492        8.19812864660134

 Bond Distances (Angstroems)
 ---------------------------
Be1-B2=1.7001        Be1-B3=1.7247        Be1-C4=2.1798        B2-Be1=1.7001        B2-C4=1.3931         B3-Be1=1.7247        
B3-C4=1.6136         B3-C5=1.5259         C4-Be1=2.1798        C4-B2=1.3931         C4-B3=1.6136         C4-C5=1.4087         
C5-B3=1.5259         C5-C4=1.4087         C5-C6=1.3284         C6-C5=1.3284         C6-H7=1.0799         C6-H8=1.0813         
H7-C6=1.0799         H8-C6=1.0813         H9-H10=0.7775        H10-H9=0.7775        
 H  H  Rav=0.7775 sigma=0.0000  Rmin=0.7775  Rmax=0.7775     1
 B  Be Rav=1.7124 sigma=0.0123  Rmin=1.7001  Rmax=1.7247     2
 C  H  Rav=1.0806 sigma=0.0007  Rmin=1.0799  Rmax=1.0813     2
 C  Be Rav=2.1798 sigma=0.0000  Rmin=2.1798  Rmax=2.1798     1
 C  B  Rav=1.5109 sigma=0.0906  Rmin=1.3931  Rmax=1.6136     3
 C  C  Rav=1.3685 sigma=0.0402  Rmin=1.3284  Rmax=1.4087     2

 selected bond angles (degree)
 --------------------
B3-Be1-B2= 86.78               C4-Be1-B2= 39.72               C4-Be1-B3= 47.06               C4-B2-Be1= 89.04               
C4-B3-Be1= 81.46               C5-B3-Be1=134.69               C5-B3-C4= 53.23                B2-C4-Be1= 51.24               
B3-C4-Be1= 51.48               B3-C4-B2=102.73                C5-C4-Be1=111.68               C5-C4-B2=162.92                
C5-C4-B3= 60.19                C4-C5-B3= 66.57                C6-C5-B3=152.79                C6-C5-C4=140.64                
H7-C6-C5=121.31                H8-C6-C5=122.39                H8-C6-H7=116.30                

 selected dihedral angles (degree)
 ---------------------------------
C4-B2-Be1-B3=  0.11           C4-B3-Be1-B2=359.90           C5-B3-Be1-B2=359.61           C5-B3-Be1-C4=359.71           
B3-C4-B2-Be1=359.88           C5-C4-B2-Be1=  0.30           Be1-C4-B3-C5=179.74           B2-C4-B3-Be1=  0.12           
B2-C4-B3-C5=179.86            C5-C4-B3-Be1=180.26           C4-C5-B3-Be1=  0.36           C6-C5-B3-Be1=180.49           
C6-C5-B3-C4=180.12            B3-C5-C4-Be1=359.78           B3-C5-C4-B2=359.53            C6-C5-C4-Be1=179.69           
C6-C5-C4-B2=179.44            C6-C5-C4-B3=179.91            H7-C6-C5-B3=  0.13            H7-C6-C5-C4=180.31            
H8-C6-C5-B3=179.86            H8-C6-C5-C4=  0.04            

 CMA Distance (Angstroems)
 ---------------------------
R(CMA):  2.6030
           -------------------------------------------------
          |                Final Singlepoint                |
           -------------------------------------------------

          ...................................................
          :                      SETUP                      :
          :.................................................:
          :  # basis functions                  28          :
          :  # atomic orbitals                  28          :
          :  # shells                           16          :
          :  # electrons                        24          :
          :  max. iterations                   250          :
          :  Hamiltonian                  GFN2-xTB          :
          :  restarted?                      false          :
          :  GBSA solvation                  false          :
          :  PC potential                    false          :
          :  electronic temp.          300.0000000     K    :
          :  accuracy                    1.0000000          :
          :  -> integral cutoff          0.2500000E+02      :
          :  -> integral neglect         0.1000000E-07      :
          :  -> SCF convergence          0.1000000E-05 Eh   :
          :  -> wf. convergence          0.1000000E-03 e    :
          :  Broyden damping             0.4000000          :
          ...................................................

 iter      E             dE          RMSdq      gap      omega  full diag
   1    -11.5632892 -0.115633E+02  0.895E-05    2.39       0.0  T
   2    -11.5632892  0.173666E-09  0.113E-04    2.39     280.6  T
   3    -11.5632892 -0.144215E-09  0.733E-05    2.39     431.5  T

   *** convergence criteria satisfied after 3 iterations ***

         #    Occupation            Energy/Eh            Energy/eV
      -------------------------------------------------------------
         1        2.0000           -0.5604421             -15.2504
       ...           ...                  ...                  ...
         6        2.0000           -0.4235029             -11.5241
         7        2.0000           -0.3937112             -10.7134
         8        2.0000           -0.3915375             -10.6543
         9        2.0000           -0.3354863              -9.1290
        10        2.0000           -0.3228911              -8.7863
        11        2.0000           -0.3087443              -8.4014
        12        2.0000           -0.3007996              -8.1852 (HOMO)
        13                         -0.2130129              -5.7964 (LUMO)
        14                         -0.1843295              -5.0159
        15                         -0.1816459              -4.9428
        16                         -0.1451463              -3.9496
        17                         -0.0590637              -1.6072
       ...                                ...                  ...
        28                          1.4583891              39.6848
      -------------------------------------------------------------
                  HL-Gap            0.0877867 Eh            2.3888 eV
             Fermi-level           -0.2569062 Eh           -6.9908 eV

 SCC (total)                   0 d,  0 h,  0 min,  0.002 sec
 SCC setup                      ...        0 min,  0.000 sec (  2.258%)
 Dispersion                     ...        0 min,  0.000 sec (  5.946%)
 classical contributions        ...        0 min,  0.000 sec (  1.982%)
 integral evaluation            ...        0 min,  0.000 sec (  7.508%)
 iterations                     ...        0 min,  0.001 sec ( 48.204%)
 molecular gradient             ...        0 min,  0.001 sec ( 31.988%)
 printout                       ...        0 min,  0.000 sec (  1.477%)

         :::::::::::::::::::::::::::::::::::::::::::::::::::::
         ::                     SUMMARY                     ::
         :::::::::::::::::::::::::::::::::::::::::::::::::::::
         :: total energy             -11.319813143672 Eh    ::
         :: gradient norm              0.000685408454 Eh/a0 ::
         :: HOMO-LUMO gap              2.388798469486 eV    ::
         ::.................................................::
         :: SCC energy               -11.563289213797 Eh    ::
         :: -> isotropic ES           -0.010724564814 Eh    ::
         :: -> anisotropic ES          0.008517902668 Eh    ::
         :: -> anisotropic XC         -0.007836624473 Eh    ::
         :: -> dispersion             -0.004803606029 Eh    ::
         :: repulsion energy           0.243491570234 Eh    ::
         :: add. restraining           0.000000000000 Eh    ::
         :: total charge              -0.000000000000 e     ::
         :::::::::::::::::::::::::::::::::::::::::::::::::::::

           -------------------------------------------------
          |                Property Printout                |
           -------------------------------------------------

    * Orbital Energies and Occupations

         #    Occupation            Energy/Eh            Energy/eV
      -------------------------------------------------------------
         1        2.0000           -0.5604421             -15.2504
         2        2.0000           -0.5305315             -14.4365
         3        2.0000           -0.4696581             -12.7800
         4        2.0000           -0.4531553             -12.3310
         5        2.0000           -0.4446674             -12.1000
         6        2.0000           -0.4235029             -11.5241
         7        2.0000           -0.3937112             -10.7134
         8        2.0000           -0.3915375             -10.6543
         9        2.0000           -0.3354863              -9.1290
        10        2.0000           -0.3228911              -8.7863
        11        2.0000           -0.3087443              -8.4014
        12        2.0000           -0.3007996              -8.1852 (HOMO)
        13                         -0.2130129              -5.7964 (LUMO)
        14                         -0.1843295              -5.0159
        15                         -0.1816459              -4.9428
        16                         -0.1451463              -3.9496
        17                         -0.0590637              -1.6072
        18                         -0.0071153              -0.1936
        19                         -0.0045988              -0.1251
        20                          0.1333550               3.6288
        21                          0.1696076               4.6153
        22                          0.2592147               7.0536
        23                          0.3116981               8.4817
       ...                                ...                  ...
        28                          1.4583891              39.6848
      -------------------------------------------------------------
                  HL-Gap            0.0877867 Eh            2.3888 eV
             Fermi-level           -0.2569062 Eh           -6.9908 eV

     #   Z          covCN         q      C6AA      α(0)
     1   4 Be       2.355     0.370    14.989     8.938
     2   5 B        1.877    -0.002    44.499    14.047
     3   5 B        2.766     0.042    20.784     7.626
     4   6 C        3.318    -0.216    31.195     8.896
     5   6 C        2.865    -0.058    29.434     8.893
     6   6 C        2.833    -0.119    31.015     9.126
     7   1 H        0.926    -0.010     3.234     2.812
     8   1 H        0.925    -0.007     3.191     2.793
     9   1 H        0.811     0.006     3.007     2.723
    10   1 H        0.811    -0.006     3.213     2.815

 Mol. C6AA /au·bohr⁶  :       1469.328912
 Mol. C8AA /au·bohr⁸  :      43174.217077
 Mol. α(0) /au        :         68.668615


Wiberg/Mayer (AO) data.
largest (>0.10) Wiberg bond orders for each atom

 ---------------------------------------------------------------------------
     #   Z sym  total        # sym  WBO       # sym  WBO       # sym  WBO
 ---------------------------------------------------------------------------
     1   4 Be   2.120 --     2 B    0.997     3 B    0.938     4 C    0.115
     2   5 B    3.338 --     4 C    1.746     1 Be   0.997     3 B    0.380
                             6 C    0.180
     3   5 B    3.143 --     5 C    0.990     1 Be   0.938     4 C    0.806
                             2 B    0.380
     4   6 C    3.891 --     2 B    1.746     5 C    1.159     3 B    0.806
                             1 Be   0.115
     5   6 C    3.962 --     6 C    1.759     4 C    1.159     3 B    0.990
     6   6 C    3.976 --     5 C    1.759     7 H    0.973     8 H    0.970
                             2 B    0.180
     7   1 H    1.000 --     6 C    0.973
     8   1 H    1.000 --     6 C    0.970
     9   1 H    1.000 --    10 H    0.999
    10   1 H    1.000 --     9 H    0.999
 ---------------------------------------------------------------------------

Topologies differ in total number of bonds
Writing topology from bond orders to xtbtopo.mol

molecular dipole:
                 x           y           z       tot (Debye)
 q only:       -0.814      -0.221      -2.015
   full:       -0.567      -0.150      -1.591       4.311
molecular quadrupole (traceless):
                xx          xy          yy          xz          yz          zz
 q only:        3.608      -1.127       8.424      -9.083      -1.466     -12.032
  q+dip:        1.479       0.033       3.443      -4.578      -1.030      -4.922
   full:        0.667      -2.587       7.498      -2.464       0.517      -8.166

           -------------------------------------------------
          |                Geometry Summary                 |
           -------------------------------------------------

      molecular mass/u    :       70.6982099
   center of mass at/Å    :        1.2298052       0.2251972       2.2942629
  moments of inertia/u·Å² :        0.3366132E+02   0.2206173E+03   0.2507538E+03
Note: The following floating-point exceptions are signalling: IEEE_UNDERFLOW_FLAG
normal termination of xtb
rotational constants/cm⁻¹ :        0.5008012E+00   0.7641118E-01   0.6722781E-01

 * 9 selected distances

     #   Z          #   Z                                           value/Å
     1   4 Be       2   5 B                                       1.7000619
     1   4 Be       3   5 B                                       1.7246554 (max)
     2   5 B        4   6 C                                       1.3931111
     3   5 B        5   6 C                                       1.5259194
     4   6 C        5   6 C                                       1.4086960
     5   6 C        6   6 C                                       1.3283864
     6   6 C        7   1 H                                       1.0799165
     6   6 C        8   1 H                                       1.0813404
     9   1 H       10   1 H                                       0.7774710 (min)

 * 5 distinct bonds (by element types)

   Z      Z             #   av. dist./Å        max./Å        min./Å
   1 H    1 H           1     0.7774710     0.7774710     0.7774710
   4 Be   5 B           2     1.7123586     1.7246554     1.7000619
   1 H    6 C           2     1.0806285     1.0813404     1.0799165
   5 B    6 C           2     1.4595153     1.5259194     1.3931111
   6 C    6 C           2     1.3685412     1.4086960     1.3283864


optimized geometry written to: xtbopt.xyz


           -------------------------------------------------
          | TOTAL ENERGY              -11.319813143672 Eh   |
          | GRADIENT NORM               0.000685408454 Eh/α |
          | HOMO-LUMO GAP               2.388798469486 eV   |
           -------------------------------------------------
########################################################################
[WARNING] Runtime exception occurred
-3- restart_readRestart: Dimension missmatch in restart file.
-2- restart_readRestart: Multiplicity missmatch in restart file.
-1- restart_readRestart: Number of electron missmatch in restart file.
########################################################################

------------------------------------------------------------------------
 * finished run on 2025/06/07 at 03:27:41.439     
------------------------------------------------------------------------
 total:
 * wall-time:     0 d,  0 h,  0 min,  0.145 sec
 *  cpu-time:     0 d,  0 h,  0 min,  2.069 sec
 * ratio c/w:    14.318 speedup
 SCF:
 * wall-time:     0 d,  0 h,  0 min,  0.010 sec
 *  cpu-time:     0 d,  0 h,  0 min,  0.149 sec
 * ratio c/w:    14.721 speedup
 ANC optimizer:
 * wall-time:     0 d,  0 h,  0 min,  0.132 sec
 *  cpu-time:     0 d,  0 h,  0 min,  1.885 sec
 * ratio c/w:    14.336 speedup

