      -----------------------------------------------------------      
     |                   =====================                   |     
     |                           x T B                           |     
     |                   =====================                   |     
     |                         S. Grimme                         |     
     |          Mulliken Center for Theoretical Chemistry        |     
     |                    University of Bonn                     |     
      -----------------------------------------------------------      

   * xtb version 6.5.1 (conda-forge) compiled by 'runner@Mac-1657629245115.local' on 2022-07-12

   xtb is free software: you can redistribute it and/or modify it under
   the terms of the GNU Lesser General Public License as published by
   the Free Software Foundation, either version 3 of the License, or
   (at your option) any later version.
   
   xtb is distributed in the hope that it will be useful,
   but WITHOUT ANY WARRANTY; without even the implied warranty of
   MERCHANTABILITY or FITNESS FOR A PARTICULAR PURPOSE.  See the
   GNU Lesser General Public License for more details.
   
   Cite this work as:
   * C. Bannwarth, E. Caldeweyher, S. Ehlert, A. Hansen, P. Pracht,
     J. Seibert, S. Spicher, S. Grimme, WIREs Comput. Mol. Sci., 2020, 11,
     e01493. DOI: 10.1002/wcms.1493
   
   for GFN2-xTB:
   * C. Bannwarth, S. Ehlert and S. Grimme., J. Chem. Theory Comput., 2019,
     15, 1652-1671. DOI: 10.1021/acs.jctc.8b01176
   for GFN1-xTB:
   * S. Grimme, C. Bannwarth, P. Shushkov, J. Chem. Theory Comput., 2017,
     13, 1989-2009. DOI: 10.1021/acs.jctc.7b00118
   for GFN0-xTB:
   * P. Pracht, E. Caldeweyher, S. Ehlert, S. Grimme, ChemRxiv, 2019, preprint.
     DOI: 10.26434/chemrxiv.8326202.v1
   for GFN-FF:
   * S. Spicher and S. Grimme, Angew. Chem. Int. Ed., 2020, 59, 15665-15673.
     DOI: 10.1002/anie.202004239
   
   for ALPB and GBSA implicit solvation:
   * S. Ehlert, M. Stahn, S. Spicher, S. Grimme, J. Chem. Theory Comput.,
     2021, 17, 4250-4261. DOI: 10.1021/acs.jctc.1c00471
   
   for DFT-D4:
   * E. Caldeweyher, C. Bannwarth and S. Grimme, J. Chem. Phys., 2017,
     147, 034112. DOI: 10.1063/1.4993215
   * E. Caldeweyher, S. Ehlert, A. Hansen, H. Neugebauer, S. Spicher,
     C. Bannwarth and S. Grimme, J. Chem. Phys., 2019, 150, 154122.
     DOI: 10.1063/1.5090222
   * E. Caldeweyher, J.-M. Mewes, S. Ehlert and S. Grimme, Phys. Chem. Chem. Phys.
     2020, 22, 8499-8512. DOI: 10.1039/D0CP00502A
   
   for sTDA-xTB:
   * S. Grimme and C. Bannwarth, J. Chem. Phys., 2016, 145, 054103.
     DOI: 10.1063/1.4959605
   
   in the mass-spec context:
   * V. Asgeirsson, C. Bauer and S. Grimme, Chem. Sci., 2017, 8, 4879.
     DOI: 10.1039/c7sc00601b
   * J. Koopman and S. Grimme, ACS Omega 2019, 4, 12, 15120-15133.
     DOI: 10.1021/acsomega.9b02011
   
   for metadynamics refer to:
   * S. Grimme, J. Chem. Theory Comput., 2019, 155, 2847-2862
     DOI: 10.1021/acs.jctc.9b00143
   
   for SPH calculations refer to:
   * S. Spicher and S. Grimme, J. Chem. Theory Comput., 2021, 17, 1701-1714
     DOI: 10.1021/acs.jctc.0c01306
   
   with help from (in alphabetical order)
   P. Atkinson, C. Bannwarth, F. Bohle, G. Brandenburg, E. Caldeweyher
   M. Checinski, S. Dohm, S. Ehlert, S. Ehrlich, I. Gerasimov, C. Hölzer
   A. Katbashev, J. Koopman, C. Lavigne, S. Lehtola, F. März, M. Müller,
   F. Musil, H. Neugebauer, J. Pisarek, C. Plett, P. Pracht, F. Pultar,
   J. Seibert, P. Shushkov, S. Spicher, M. Stahn, M. Steiner, T. Strunk,
   J. Stückrath, T. Rose, and J. Unsleber
   
 * started run on 2025/06/07 at 03:27:43.052     

           -------------------------------------------------
          |                Calculation Setup                |
           -------------------------------------------------

          program call               : xtb B2BeH6.xyz --gfn 2 --opt
          coordinate file            : B2BeH6.xyz
          omp threads                :                    16

   ID    Z sym.   atoms
    1    4 Be     1
    2    5 B      2, 3
    3    1 H      4-9

molecular fragmentation (1/2 indicates fragments):
112222222
# atoms in fragment 1/2:     2     7
 fragment masses (1/2) :       19.82       16.86
CMA distance (Bohr)    :   3.906
constraining FC (au)   :  0.0500

           -------------------------------------------------
          |                 G F N 2 - x T B                 |
           -------------------------------------------------

        Reference                      10.1021/acs.jctc.8b01176
      * Hamiltonian:
        H0-scaling (s, p, d)           1.850000    2.230000    2.230000
        zeta-weighting                 0.500000
      * Dispersion:
        s8                             2.700000
        a1                             0.520000
        a2                             5.000000
        s9                             5.000000
      * Repulsion:
        kExp                           1.500000    1.000000
        rExp                           1.000000
      * Coulomb:
        alpha                          2.000000
        third order                    shell-resolved
        anisotropic                    true
        a3                             3.000000
        a5                             4.000000
        cn-shift                       1.200000
        cn-exp                         4.000000
        max-rad                        5.000000


          ...................................................
          :                      SETUP                      :
          :.................................................:
          :  # basis functions                  18          :
          :  # atomic orbitals                  18          :
          :  # shells                           12          :
          :  # electrons                        14          :
          :  max. iterations                   250          :
          :  Hamiltonian                  GFN2-xTB          :
          :  restarted?                      false          :
          :  GBSA solvation                  false          :
          :  PC potential                    false          :
          :  electronic temp.          300.0000000     K    :
          :  accuracy                    1.0000000          :
          :  -> integral cutoff          0.2500000E+02      :
          :  -> integral neglect         0.1000000E-07      :
          :  -> SCF convergence          0.1000000E-05 Eh   :
          :  -> wf. convergence          0.1000000E-03 e    :
          :  Broyden damping             0.4000000          :
          ...................................................

 iter      E             dE          RMSdq      gap      omega  full diag
   1     14.6832873  0.146833E+02  0.224E+01    4.34       0.0  T
   2      0.8079881 -0.138753E+02  0.259E+01    0.14       1.0  T
   3     -0.5793138 -0.138730E+01  0.209E+01    2.04       1.0  T
   4      0.4204640  0.999778E+00  0.191E+01    2.22       1.0  T
   5     -2.6079838 -0.302845E+01  0.150E+01    0.51       1.0  T
   6     -2.3917549  0.216229E+00  0.117E+01    0.26       1.0  T
   7     -3.2143219 -0.822567E+00  0.145E+01    0.39       1.0  T
   8     -3.9909487 -0.776627E+00  0.949E+00    0.32       1.0  T
   9     -3.9893192  0.162950E-02  0.942E+00    0.32       1.0  T
  10     -2.5989117  0.139041E+01  0.126E+01    0.61       1.0  T
  11     -4.2169254 -0.161801E+01  0.890E+00    0.39       1.0  T
  12     -4.3799010 -0.162976E+00  0.806E+00    0.39       1.0  T
  13     -4.5529987 -0.173098E+00  0.741E+00    0.36       1.0  T
  14     -4.9853443 -0.432346E+00  0.631E+00    0.25       1.0  T
  15     -5.5871743 -0.601830E+00  0.480E+00    0.20       1.0  T
  16     -5.5607845  0.263898E-01  0.469E+00    0.20       1.0  T
  17     -5.5539005  0.688393E-02  0.478E+00    0.20       1.0  T
  18     -5.3986075  0.155293E+00  0.394E+00    0.30       1.0  T
  19     -5.5403636 -0.141756E+00  0.383E+00    0.24       1.0  T
  20     -5.5670539 -0.266903E-01  0.358E+00    0.24       1.0  T
  21     -5.5548611  0.121927E-01  0.207E+00    0.29       1.0  T
  22     -5.5760406 -0.211795E-01  0.158E+00    0.29       1.0  T
  23     -5.5964162 -0.203755E-01  0.181E+00    0.24       1.0  T
  24     -5.5989174 -0.250120E-02  0.113E+00    0.25       1.0  T
  25     -5.5951969  0.372051E-02  0.525E-01    0.27       1.0  T
  26     -5.5977520 -0.255510E-02  0.940E-01    0.25       1.0  T
  27     -5.5995389 -0.178690E-02  0.575E-01    0.25       1.0  T
  28     -5.5988054  0.733509E-03  0.780E-01    0.25       1.0  T
  29     -5.5988435 -0.381663E-04  0.776E-01    0.25       1.0  T
  30     -5.5988664 -0.228485E-04  0.712E-01    0.25       1.0  T
  31     -5.5982674  0.598956E-03  0.619E-01    0.25       1.0  T
  32     -5.5984650 -0.197568E-03  0.538E-01    0.25       1.0  T
  33     -5.5992908 -0.825838E-03  0.397E-01    0.26       1.0  T
  34     -5.5994842 -0.193355E-03  0.330E-01    0.26       1.0  T
  35     -5.5994408  0.433355E-04  0.291E-01    0.26       1.0  T
  36     -5.5993745  0.663478E-04  0.246E-01    0.26       1.0  T
  37     -5.5994768 -0.102313E-03  0.184E-01    0.26       1.0  T
  38     -5.5996237 -0.146923E-03  0.129E-01    0.26       1.0  T
  39     -5.5997010 -0.772726E-04  0.935E-02    0.26       1.0  T
  40     -5.5997352 -0.341710E-04  0.668E-02    0.26       1.0  T
  41     -5.5997558 -0.205794E-04  0.378E-02    0.26       1.0  T
  42     -5.5997636 -0.780983E-05  0.159E-02    0.26       2.1  T
  43     -5.5997652 -0.158189E-05  0.627E-03    0.26       5.3  T
  44     -5.5997651  0.326046E-07  0.596E-03    0.26       5.6  T
  45     -5.5997652 -0.555937E-07  0.288E-03    0.26      11.6  T
  46     -5.5997651  0.312093E-07  0.249E-03    0.26      13.4  T
  47     -5.5997651  0.748466E-08  0.246E-03    0.26      13.5  T
  48     -5.5997651 -0.105903E-07  0.212E-03    0.26      15.7  T
  49     -5.5997652 -0.379711E-07  0.294E-04    0.26     113.2  T
  50     -5.5997652 -0.567693E-09  0.166E-04    0.26     200.6  T

   *** convergence criteria satisfied after 50 iterations ***

         #    Occupation            Energy/Eh            Energy/eV
      -------------------------------------------------------------
         1        2.0000           -0.5471698             -14.8892
         2        2.0000           -0.4505191             -12.2592
         3        2.0000           -0.3689104             -10.0386
         4        2.0000           -0.3273690              -8.9082
         5        2.0000           -0.2671056              -7.2683
         6        2.0000           -0.2235198              -6.0823
         7        1.9876           -0.2161911              -5.8829 (HOMO)
         8        0.0124           -0.2065451              -5.6204 (LUMO)
         9                         -0.1649119              -4.4875
        10                         -0.1591010              -4.3294
        11                         -0.1357748              -3.6946
        12                         -0.0751843              -2.0459
       ...                                ...                  ...
        18                          0.8159001              22.2018
      -------------------------------------------------------------
                  HL-Gap            0.0096460 Eh            0.2625 eV
             Fermi-level           -0.2113679 Eh           -5.7516 eV

 SCC (total)                   0 d,  0 h,  0 min,  0.011 sec
 SCC setup                      ...        0 min,  0.000 sec (  0.525%)
 Dispersion                     ...        0 min,  0.000 sec (  0.876%)
 classical contributions        ...        0 min,  0.000 sec (  0.839%)
 integral evaluation            ...        0 min,  0.000 sec (  1.099%)
 iterations                     ...        0 min,  0.010 sec ( 91.119%)
 molecular gradient             ...        0 min,  0.001 sec (  5.206%)
 printout                       ...        0 min,  0.000 sec (  0.237%)

         :::::::::::::::::::::::::::::::::::::::::::::::::::::
         ::                     SUMMARY                     ::
         :::::::::::::::::::::::::::::::::::::::::::::::::::::
         :: total energy              -5.515095424988 Eh    ::
         :: gradient norm              0.246606445633 Eh/a0 ::
         :: HOMO-LUMO gap              0.262480595343 eV    ::
         ::.................................................::
         :: SCC energy                -5.599765185180 Eh    ::
         :: -> isotropic ES           -0.011747775535 Eh    ::
         :: -> anisotropic ES          0.006300378081 Eh    ::
         :: -> anisotropic XC         -0.024152569213 Eh    ::
         :: -> dispersion             -0.005951866483 Eh    ::
         :: repulsion energy           0.084667889959 Eh    ::
         :: add. restraining           0.000000000000 Eh    ::
         :: total charge               0.000000000000 e     ::
         :::::::::::::::::::::::::::::::::::::::::::::::::::::

      ----------------------------------------------------------- 
     |                   =====================                   |
     |                        A N C O P T                        |
     |                   =====================                   |
     |               Approximate Normal Coordinate               |
     |                Rational Function Optimizer                |
      ----------------------------------------------------------- 

          ...................................................
          :                      SETUP                      :
          :.................................................:
          :   optimization level            normal          :
          :   max. optcycles                   200          :
          :   ANC micro-cycles                  20          :
          :   degrees of freedom                21          :
          :.................................................:
          :   RF solver                   davidson          :
          :   write xtbopt.log                true          :
          :   linear?                        false          :
          :   energy convergence         0.5000000E-05 Eh   :
          :   grad. convergence          0.1000000E-02 Eh/α :
          :   maximium RF displ.         1.0000000          :
          :   Hlow (freq-cutoff)         0.1000000E-01      :
          :   Hmax (freq-cutoff)         5.0000000          :
          :   S6 in model hess.         20.0000000          :
          ...................................................

generating ANC from model Hessian ...
Using Lindh-Hessian (1995)
 Shifting diagonal of input Hessian by    1.5886114711911821E-002
 Lowest  eigenvalues of input Hessian
    0.010000    0.014874    0.000000    0.000000    0.000000    0.000000
    0.000000    0.000000    0.016234    0.016785    0.017579    0.018251
    0.019348    0.024927    0.031559    0.042983    0.045496    0.064725
 Highest eigenvalues
    0.196490    0.199579    0.256561    0.316005    0.372553    0.413573


........................................................................
.............................. CYCLE    1 ..............................
........................................................................
   1     -5.5997652 -0.559977E+01  0.660E-05    0.26       0.0  T
   2     -5.5997652  0.205350E-08  0.388E-04    0.26      86.0  T
   3     -5.5997652 -0.197266E-08  0.898E-05    0.26     371.2  T
     SCC iter.                  ...        0 min,  0.000 sec
     gradient                   ...        0 min,  0.000 sec
 * total energy  :    -5.5150954 Eh     change       -0.1622089E-09 Eh
   gradient norm :     0.2465555 Eh/α   predicted     0.0000000E+00 (-100.00%)
   displ. norm   :     0.7512428 α      lambda       -0.1810056E+00
   maximum displ.:     0.5135764 α      in ANC's #15, #17, #1, ...

........................................................................
.............................. CYCLE    2 ..............................
........................................................................
   1     -5.5827227 -0.558272E+01  0.597E+00    0.57       0.0  T
   2     -4.1472122  0.143551E+01  0.108E+01    0.87       1.0  T
   3     -5.1508537 -0.100364E+01  0.587E+00    0.82       1.0  T
   4     -4.8835572  0.267297E+00  0.778E+00    0.47       1.0  T
   5     -5.4066905 -0.523133E+00  0.428E+00    0.45       1.0  T
   6     -5.4609395 -0.542489E-01  0.359E+00    0.50       1.0  T
   7     -5.6975534 -0.236614E+00  0.160E+00    0.53       1.0  T
   8     -5.6752320  0.223214E-01  0.159E+00    0.52       1.0  T
   9     -5.7073733 -0.321413E-01  0.130E+00    0.57       1.0  T
  10     -5.7066381  0.735196E-03  0.935E-01    0.58       1.0  T
  11     -5.7079130 -0.127485E-02  0.757E-01    0.58       1.0  T
  12     -5.7094283 -0.151532E-02  0.530E-01    0.58       1.0  T
  13     -5.7098330 -0.404687E-03  0.329E-01    0.58       1.0  T
  14     -5.7106636 -0.830590E-03  0.226E-01    0.58       1.0  T
  15     -5.7112140 -0.550453E-03  0.115E-01    0.58       1.0  T
  16     -5.7113014 -0.873268E-04  0.595E-02    0.57       1.0  T
  17     -5.7113296 -0.282668E-04  0.713E-03    0.57       4.7  T
  18     -5.7113297 -0.427303E-07  0.344E-03    0.57       9.7  T
  19     -5.7113297 -0.331320E-07  0.158E-03    0.57      21.0  T
  20     -5.7113297 -0.112817E-07  0.600E-04    0.57      55.6  T
  21     -5.7113297 -0.263452E-08  0.194E-04    0.57     171.5  T
     SCC iter.                  ...        0 min,  0.003 sec
     gradient                   ...        0 min,  0.001 sec
 * total energy  :    -5.6547424 Eh     change       -0.1396470E+00 Eh
   gradient norm :     0.1685799 Eh/α   predicted    -0.1415795E+00 (   1.38%)
   displ. norm   :     0.8041063 α      lambda       -0.1337140E+00
   maximum displ.:     0.6429346 α      in ANC's #17, #13, #15, ...

........................................................................
.............................. CYCLE    3 ..............................
........................................................................
   1     -5.8251770 -0.582518E+01  0.392E+00    1.48       0.0  T
   2     -5.6160540  0.209123E+00  0.532E+00    1.08       1.0  T
   3     -5.8368455 -0.220792E+00  0.252E+00    1.36       1.0  T
   4     -5.7428264  0.940190E-01  0.215E+00    1.45       1.0  T
   5     -5.8039880 -0.611615E-01  0.167E+00    1.16       1.0  T
   6     -5.8556786 -0.516906E-01  0.736E-01    1.24       1.0  T
   7     -5.8662376 -0.105590E-01  0.194E-01    1.28       1.0  T
   8     -5.8659895  0.248145E-03  0.199E-01    1.26       1.0  T
   9     -5.8665606 -0.571152E-03  0.615E-02    1.27       1.0  T
  10     -5.8666307 -0.700649E-04  0.310E-02    1.27       1.1  T
  11     -5.8666525 -0.218218E-04  0.616E-03    1.27       5.4  T
  12     -5.8666527 -0.150713E-06  0.234E-03    1.27      14.3  T
  13     -5.8666527 -0.519069E-08  0.137E-03    1.27      24.4  T
  14     -5.8666527 -0.447360E-07  0.254E-04    1.27     131.3  T
  15     -5.8666527 -0.272094E-09  0.981E-05    1.27     339.7  T
     SCC iter.                  ...        0 min,  0.004 sec
     gradient                   ...        0 min,  0.001 sec
 * total energy  :    -5.7094953 Eh     change       -0.5475294E-01 Eh
   gradient norm :     0.2296518 Eh/α   predicted    -0.1100859E+00 ( 101.06%)
   displ. norm   :     0.4657148 α      lambda       -0.8907435E-01
   maximum displ.:     0.2692079 α      in ANC's #17, #14, #1, ...

........................................................................
.............................. CYCLE    4 ..............................
........................................................................
   1     -5.8007522 -0.580075E+01  0.197E+00    1.23       0.0  T
   2     -5.6459146  0.154838E+00  0.364E+00    1.42       1.0  T
   3     -5.7950752 -0.149161E+00  0.156E+00    1.24       1.0  T
   4     -5.7064300  0.886452E-01  0.224E+00    1.10       1.0  T
   5     -5.8142096 -0.107780E+00  0.344E-01    1.24       1.0  T
   6     -5.8141895  0.200720E-04  0.287E-01    1.24       1.0  T
   7     -5.8123504  0.183915E-02  0.274E-01    1.26       1.0  T
   8     -5.8145592 -0.220878E-02  0.655E-02    1.24       1.0  T
   9     -5.8146476 -0.884603E-04  0.140E-02    1.24       2.4  T
  10     -5.8146473  0.355519E-06  0.941E-03    1.24       3.5  T
  11     -5.8146493 -0.206967E-05  0.246E-03    1.24      13.5  T
  12     -5.8146494 -0.312929E-07  0.740E-04    1.24      45.0  T
  13     -5.8146494 -0.861218E-09  0.269E-04    1.24     124.0  T
     SCC iter.                  ...        0 min,  0.003 sec
     gradient                   ...        0 min,  0.001 sec
 * total energy  :    -5.7428209 Eh     change       -0.3332560E-01 Eh
   gradient norm :     0.0902594 Eh/α   predicted    -0.5419683E-01 (  62.63%)
   displ. norm   :     0.5475767 α      lambda       -0.2987570E-01
   maximum displ.:     0.2945543 α      in ANC's #8, #1, #14, ...

........................................................................
.............................. CYCLE    5 ..............................
........................................................................
   1     -5.8475615 -0.584756E+01  0.164E+00    1.63       0.0  T
   2     -5.8354422  0.121193E-01  0.140E+00    1.70       1.0  T
   3     -5.7482978  0.871444E-01  0.214E+00    1.45       1.0  T
   4     -5.8237553 -0.754575E-01  0.112E+00    1.67       1.0  T
   5     -5.8321363 -0.838104E-02  0.899E-01    1.59       1.0  T
   6     -5.8486281 -0.164918E-01  0.169E-01    1.63       1.0  T
   7     -5.8487362 -0.108141E-03  0.126E-01    1.63       1.0  T
   8     -5.8489222 -0.185978E-03  0.549E-02    1.63       1.0  T
   9     -5.8489496 -0.274284E-04  0.191E-02    1.62       1.7  T
  10     -5.8489593 -0.969682E-05  0.320E-03    1.62      10.4  T
  11     -5.8489594 -0.576009E-07  0.134E-03    1.62      24.8  T
  12     -5.8489594 -0.155304E-08  0.780E-04    1.62      42.7  T
  13     -5.8489594 -0.695742E-08  0.114E-04    1.62     293.3  T
     SCC iter.                  ...        0 min,  0.002 sec
     gradient                   ...        0 min,  0.001 sec
 * total energy  :    -5.7678270 Eh     change       -0.2500603E-01 Eh
   gradient norm :     0.0750437 Eh/α   predicted    -0.1941682E-01 ( -22.35%)
   displ. norm   :     0.7502516 α      lambda       -0.3878463E-01
   maximum displ.:     0.4356126 α      in ANC's #8, #20, #12, ...

........................................................................
.............................. CYCLE    6 ..............................
........................................................................
   1     -5.9044968 -0.590450E+01  0.253E+00    2.11       0.0  T
   2     -5.9047333 -0.236506E-03  0.153E+00    2.08       1.0  T
   3     -5.8553321  0.494011E-01  0.155E+00    1.98       1.0  T
   4     -5.8950234 -0.396912E-01  0.724E-01    2.06       1.0  T
   5     -5.8969611 -0.193777E-02  0.785E-01    2.05       1.0  T
   6     -5.9048341 -0.787300E-02  0.195E-01    2.04       1.0  T
   7     -5.9055085 -0.674389E-03  0.563E-02    2.06       1.0  T
   8     -5.9055446 -0.360941E-04  0.113E-02    2.05       3.0  T
   9     -5.9055453 -0.665425E-06  0.396E-03    2.06       8.4  T
  10     -5.9055453 -0.606900E-07  0.116E-03    2.06      28.8  T
  11     -5.9055453  0.242418E-07  0.166E-03    2.06      20.1  T
  12     -5.9055454 -0.430301E-07  0.230E-04    2.06     144.9  T
  13     -5.9055454 -0.376061E-09  0.635E-05    2.06     524.8  T
     SCC iter.                  ...        0 min,  0.001 sec
     gradient                   ...        0 min,  0.000 sec
 * total energy  :    -5.7996290 Eh     change       -0.3180200E-01 Eh
   gradient norm :     0.0945070 Eh/α   predicted    -0.3030781E-01 (  -4.70%)
   displ. norm   :     0.8090188 α      lambda       -0.5151911E-01
   maximum displ.:     0.3955157 α      in ANC's #8, #9, #20, ...

........................................................................
.............................. CYCLE    7 ..............................
........................................................................
   1     -5.9671886 -0.596719E+01  0.230E+00    2.44       0.0  T
   2     -5.9554770  0.117116E-01  0.190E+00    2.44       1.0  T
   3     -5.8996880  0.557890E-01  0.257E+00    2.43       1.0  T
   4     -5.9225947 -0.229068E-01  0.147E+00    2.22       1.0  T
   5     -5.9655653 -0.429706E-01  0.487E-01    2.41       1.0  T
   6     -5.9698622 -0.429690E-02  0.131E-01    2.40       1.0  T
   7     -5.9698187  0.435409E-04  0.798E-02    2.40       1.0  T
   8     -5.9698916 -0.729650E-04  0.186E-02    2.41       1.8  T
   9     -5.9698919 -0.270153E-06  0.123E-02    2.41       2.7  T
  10     -5.9698939 -0.198273E-05  0.218E-03    2.41      15.3  T
  11     -5.9698939 -0.542124E-07  0.958E-04    2.41      34.8  T
  12     -5.9698939 -0.110431E-07  0.275E-04    2.41     121.1  T
     SCC iter.                  ...        0 min,  0.001 sec
     gradient                   ...        0 min,  0.000 sec
 * total energy  :    -5.8366498 Eh     change       -0.3702084E-01 Eh
   gradient norm :     0.0932015 Eh/α   predicted    -0.4261947E-01 (  15.12%)
   displ. norm   :     0.8054596 α      lambda       -0.4761659E-01
   maximum displ.:     0.4525140 α      in ANC's #8, #9, #1, ...

........................................................................
.............................. CYCLE    8 ..............................
........................................................................
   1     -5.9864714 -0.598647E+01  0.227E+00    2.49       0.0  T
   2     -5.9522120  0.342594E-01  0.211E+00    2.36       1.0  T
   3     -5.9289175  0.232945E-01  0.249E+00    2.65       1.0  T
   4     -5.8545221  0.743954E-01  0.253E+00    1.92       1.0  T
   5     -5.9915919 -0.137070E+00  0.229E-01    2.49       1.0  T
   6     -5.9920577 -0.465787E-03  0.139E-01    2.44       1.0  T
   7     -5.9920599 -0.216908E-05  0.831E-02    2.44       1.0  T
   8     -5.9921349 -0.750102E-04  0.292E-02    2.46       1.1  T
   9     -5.9921393 -0.438933E-05  0.696E-03    2.46       4.8  T
  10     -5.9921394 -0.196312E-06  0.293E-03    2.45      11.4  T
  11     -5.9921395 -0.578802E-07  0.866E-04    2.45      38.5  T
  12     -5.9921395 -0.412421E-08  0.427E-04    2.45      78.0  T
     SCC iter.                  ...        0 min,  0.001 sec
     gradient                   ...        0 min,  0.000 sec
 * total energy  :    -5.8750697 Eh     change       -0.3841993E-01 Eh
   gradient norm :     0.0850501 Eh/α   predicted    -0.3925429E-01 (   2.17%)
   displ. norm   :     0.8376241 α      lambda       -0.5801774E-01
   maximum displ.:     0.5832871 α      in ANC's #9, #10, #4, ...

........................................................................
.............................. CYCLE    9 ..............................
........................................................................
   1     -6.0113604 -0.601136E+01  0.287E+00    2.34       0.0  T
   2     -5.9172848  0.940755E-01  0.339E+00    2.03       1.0  T
   3     -5.9666866 -0.494017E-01  0.244E+00    2.74       1.0  T
   4     -5.7666708  0.200016E+00  0.367E+00    1.58       1.0  T
   5     -6.0276993 -0.261028E+00  0.496E-01    2.38       1.0  T
   6     -6.0310791 -0.337982E-02  0.189E-01    2.27       1.0  T
   7     -6.0310414  0.377759E-04  0.990E-02    2.28       1.0  T
   8     -6.0310581 -0.167496E-04  0.579E-02    2.29       1.0  T
   9     -6.0310703 -0.122264E-04  0.334E-02    2.29       1.0  T
  10     -6.0310855 -0.151998E-04  0.504E-03    2.28       6.6  T
  11     -6.0310858 -0.270253E-06  0.135E-03    2.28      24.7  T
  12     -6.0310858 -0.174476E-07  0.300E-04    2.28     110.9  T
  13     -6.0310858 -0.741629E-12  0.191E-04    2.28     174.2  T
     SCC iter.                  ...        0 min,  0.001 sec
     gradient                   ...        0 min,  0.000 sec
 * total energy  :    -5.9173540 Eh     change       -0.4228429E-01 Eh
   gradient norm :     0.0368121 Eh/α   predicted    -0.4936190E-01 (  16.74%)
   displ. norm   :     0.5499329 α      lambda       -0.1575897E-01
   maximum displ.:     0.2272132 α      in ANC's #9, #1, #10, ...

........................................................................
.............................. CYCLE   10 ..............................
........................................................................
   1     -6.0563990 -0.605640E+01  0.149E+00    2.32       0.0  T
   2     -6.0264757  0.299233E-01  0.216E+00    2.33       1.0  T
   3     -6.0635185 -0.370428E-01  0.667E-01    2.31       1.0  T
   4     -6.0580369  0.548162E-02  0.623E-01    2.46       1.0  T
   5     -6.0637529 -0.571600E-02  0.327E-01    2.29       1.0  T
   6     -6.0644752 -0.722348E-03  0.709E-02    2.31       1.0  T
   7     -6.0645013 -0.260669E-04  0.175E-02    2.31       1.9  T
   8     -6.0645031 -0.176998E-05  0.486E-03    2.32       6.9  T
   9     -6.0645031 -0.522407E-07  0.204E-03    2.31      16.4  T
  10     -6.0645032 -0.157529E-07  0.120E-03    2.31      27.7  T
  11     -6.0645032 -0.196352E-07  0.192E-04    2.31     173.3  T
  12     -6.0645032  0.440252E-10  0.141E-04    2.31     236.8  T
     SCC iter.                  ...        0 min,  0.002 sec
     gradient                   ...        0 min,  0.001 sec
 * total energy  :    -5.9028918 Eh     change        0.1446220E-01 Eh
   gradient norm :     0.2125515 Eh/α   predicted    -0.1026243E-01 (-170.96%)
   displ. norm   :     0.3362890 α      lambda       -0.5809371E-01
   maximum displ.:     0.1861137 α      in ANC's #10, #7, #13, ...

........................................................................
.............................. CYCLE   11 ..............................
........................................................................
   1     -6.0686635 -0.606866E+01  0.128E+00    2.40       0.0  T
   2     -6.0578070  0.108565E-01  0.108E+00    2.21       1.0  T
   3     -6.0430034  0.148036E-01  0.129E+00    2.66       1.0  T
   4     -6.0492853 -0.628188E-02  0.129E+00    2.12       1.0  T
   5     -6.0710839 -0.217986E-01  0.185E-01    2.36       1.0  T
   6     -6.0713532 -0.269336E-03  0.911E-02    2.32       1.0  T
   7     -6.0714430 -0.897416E-04  0.179E-02    2.34       1.9  T
   8     -6.0714417  0.124541E-05  0.151E-02    2.34       2.2  T
   9     -6.0714432 -0.154059E-05  0.226E-03    2.34      14.7  T
  10     -6.0714432  0.746247E-08  0.169E-03    2.34      19.8  T
  11     -6.0714433 -0.235602E-07  0.221E-04    2.34     150.5  T
  12     -6.0714433  0.925624E-10  0.142E-04    2.34     234.5  T
     SCC iter.                  ...        0 min,  0.002 sec
     gradient                   ...        0 min,  0.000 sec
 * total energy  :    -5.9216877 Eh     change       -0.1879584E-01 Eh
   gradient norm :     0.0768441 Eh/α   predicted    -0.3233178E-01 (  72.02%)
   displ. norm   :     0.6569472 α      lambda       -0.2529459E-01
   maximum displ.:     0.3205249 α      in ANC's #1, #4, #2, ...

........................................................................
.............................. CYCLE   12 ..............................
........................................................................
   1     -5.9723221 -0.597232E+01  0.221E+00    2.27       0.0  T
   2     -5.8880031  0.843191E-01  0.283E+00    2.56       1.0  T
   3     -5.9085631 -0.205601E-01  0.229E+00    2.01       1.0  T
   4     -5.8565024  0.520607E-01  0.263E+00    2.55       1.0  T
   5     -5.9737812 -0.117279E+00  0.603E-01    2.43       1.0  T
   6     -5.9796800 -0.589882E-02  0.154E-01    2.36       1.0  T
   7     -5.9797452 -0.652126E-04  0.587E-02    2.35       1.0  T
   8     -5.9797697 -0.244271E-04  0.231E-02    2.36       1.4  T
   9     -5.9797725 -0.279676E-05  0.820E-03    2.36       4.1  T
  10     -5.9797727 -0.200649E-06  0.275E-03    2.36      12.1  T
  11     -5.9797727 -0.306295E-07  0.896E-04    2.36      37.2  T
  12     -5.9797727 -0.303544E-08  0.304E-04    2.36     109.6  T
     SCC iter.                  ...        0 min,  0.001 sec
     gradient                   ...        0 min,  0.000 sec
 * total energy  :    -5.9032786 Eh     change        0.1840908E-01 Eh
   gradient norm :     0.0996805 Eh/α   predicted    -0.1810562E-01 (-198.35%)
   displ. norm   :     0.3905736 α      lambda       -0.3257369E-01
   maximum displ.:     0.1506400 α      in ANC's #12, #11, #1, ...

........................................................................
.............................. CYCLE   13 ..............................
........................................................................
   1     -6.0323991 -0.603240E+01  0.114E+00    2.56       0.0  T
   2     -6.0033943  0.290049E-01  0.152E+00    2.24       1.0  T
   3     -6.0166053 -0.132110E-01  0.113E+00    2.75       1.0  T
   4     -6.0229256 -0.632037E-02  0.871E-01    2.36       1.0  T
   5     -6.0339957 -0.110701E-01  0.200E-01    2.53       1.0  T
   6     -6.0340406 -0.448958E-04  0.146E-01    2.47       1.0  T
   7     -6.0343314 -0.290812E-03  0.206E-02    2.50       1.6  T
   8     -6.0343301  0.131827E-05  0.141E-02    2.51       2.4  T
   9     -6.0343327 -0.258894E-05  0.498E-03    2.50       6.7  T
  10     -6.0343329 -0.241280E-06  0.236E-03    2.50      14.1  T
  11     -6.0343330 -0.657003E-07  0.243E-04    2.50     137.0  T
  12     -6.0343330 -0.744800E-10  0.973E-05    2.50     342.5  T
     SCC iter.                  ...        0 min,  0.002 sec
     gradient                   ...        0 min,  0.000 sec
 * total energy  :    -5.9252126 Eh     change       -0.2193405E-01 Eh
   gradient norm :     0.0361160 Eh/α   predicted    -0.1877137E-01 ( -14.42%)
   displ. norm   :     0.4507271 α      lambda       -0.1043133E-01
   maximum displ.:     0.2178669 α      in ANC's #9, #4, #2, ...

........................................................................
.............................. CYCLE   14 ..............................
........................................................................
   1     -6.0747329 -0.607473E+01  0.124E+00    2.39       0.0  T
   2     -6.0551324  0.196005E-01  0.154E+00    2.13       1.0  T
   3     -6.0692672 -0.141348E-01  0.849E-01    2.47       1.0  T
   4     -6.0451702  0.240969E-01  0.135E+00    2.09       1.0  T
   5     -6.0759713 -0.308011E-01  0.109E-01    2.32       1.0  T
   6     -6.0758410  0.130320E-03  0.127E-01    2.30       1.0  T
   7     -6.0759804 -0.139420E-03  0.173E-02    2.32       1.9  T
   8     -6.0759797  0.753959E-06  0.124E-02    2.32       2.7  T
   9     -6.0759817 -0.207932E-05  0.295E-03    2.32      11.3  T
  10     -6.0759818 -0.703773E-07  0.101E-03    2.32      32.9  T
  11     -6.0759818 -0.764951E-08  0.307E-04    2.32     108.4  T
  12     -6.0759818 -0.743134E-09  0.937E-05    2.32     355.9  T
     SCC iter.                  ...        0 min,  0.001 sec
     gradient                   ...        0 min,  0.000 sec
 * total energy  :    -5.9191853 Eh     change        0.6027331E-02 Eh
   gradient norm :     0.1235495 Eh/α   predicted    -0.6275254E-02 (-204.11%)
   displ. norm   :     0.3070534 α      lambda       -0.2373991E-01
   maximum displ.:     0.1752512 α      in ANC's #7, #6, #11, ...

........................................................................
.............................. CYCLE   15 ..............................
........................................................................
   1     -6.0586417 -0.605864E+01  0.713E-01    2.42       0.0  T
   2     -6.0569746  0.166713E-02  0.568E-01    2.34       1.0  T
   3     -6.0326573  0.243172E-01  0.114E+00    2.70       1.0  T
   4     -6.0569507 -0.242934E-01  0.459E-01    2.36       1.0  T
   5     -6.0587652 -0.181449E-02  0.721E-02    2.40       1.0  T
   6     -6.0586568  0.108358E-03  0.106E-01    2.39       1.0  T
   7     -6.0587880 -0.131200E-03  0.111E-02    2.41       3.0  T
   8     -6.0587896 -0.153410E-05  0.487E-03    2.41       6.8  T
   9     -6.0587897 -0.110873E-06  0.261E-03    2.41      12.8  T
  10     -6.0587897 -0.555937E-07  0.947E-04    2.41      35.2  T
  11     -6.0587898 -0.856683E-08  0.108E-04    2.41     310.1  T
     SCC iter.                  ...        0 min,  0.001 sec
     gradient                   ...        0 min,  0.001 sec
 * total energy  :    -5.9271825 Eh     change       -0.7997189E-02 Eh
   gradient norm :     0.0557269 Eh/α   predicted    -0.1298908E-01 (  62.42%)
   displ. norm   :     0.3861126 α      lambda       -0.1091021E-01
   maximum displ.:     0.2279267 α      in ANC's #6, #8, #9, ...

........................................................................
.............................. CYCLE   16 ..............................
........................................................................
   1     -6.0388719 -0.603887E+01  0.121E+00    2.49       0.0  T
   2     -6.0170890  0.217829E-01  0.145E+00    2.80       1.0  T
   3     -6.0271298 -0.100407E-01  0.969E-01    2.37       1.0  T
   4     -6.0389548 -0.118251E-01  0.281E-01    2.61       1.0  T
   5     -6.0400140 -0.105923E-02  0.138E-01    2.57       1.0  T
   6     -6.0402590 -0.244951E-03  0.471E-02    2.56       1.0  T
   7     -6.0402663 -0.726009E-05  0.154E-02    2.55       2.2  T
   8     -6.0402680 -0.176042E-05  0.421E-03    2.55       7.9  T
   9     -6.0402681 -0.118558E-06  0.123E-03    2.55      27.1  T
  10     -6.0402681  0.123140E-07  0.126E-03    2.55      26.5  T
  11     -6.0402681 -0.192103E-07  0.109E-04    2.55     305.4  T
  12     -6.0402681 -0.993055E-10  0.602E-05    2.55     553.7  T
     SCC iter.                  ...        0 min,  0.001 sec
     gradient                   ...        0 min,  0.000 sec
 * total energy  :    -5.9220622 Eh     change        0.5120300E-02 Eh
   gradient norm :     0.0717751 Eh/α   predicted    -0.6268371E-02 (-222.42%)
   displ. norm   :     0.2780285 α      lambda       -0.1327902E-01
   maximum displ.:     0.1471936 α      in ANC's #8, #6, #10, ...

........................................................................
.............................. CYCLE   17 ..............................
........................................................................
   1     -6.0423767 -0.604238E+01  0.811E-01    2.53       0.0  T
   2     -6.0417971  0.579564E-03  0.501E-01    2.51       1.0  T
   3     -6.0337845  0.801264E-02  0.870E-01    2.64       1.0  T
   4     -6.0369434 -0.315895E-02  0.566E-01    2.42       1.0  T
   5     -6.0425052 -0.556178E-02  0.585E-02    2.52       1.0  T
   6     -6.0425017  0.348709E-05  0.543E-02    2.53       1.0  T
   7     -6.0425315 -0.297512E-04  0.700E-03    2.53       4.8  T
   8     -6.0425316 -0.182351E-06  0.196E-03    2.54      17.0  T
   9     -6.0425317 -0.554975E-07  0.750E-04    2.54      44.5  T
  10     -6.0425317 -0.559188E-09  0.341E-04    2.54      97.6  T
     SCC iter.                  ...        0 min,  0.001 sec
     gradient                   ...        0 min,  0.000 sec
 * total energy  :    -5.9287616 Eh     change       -0.6699364E-02 Eh
   gradient norm :     0.0270080 Eh/α   predicted    -0.7152741E-02 (   6.77%)
   displ. norm   :     0.3731163 α      lambda       -0.6304653E-02
   maximum displ.:     0.1726805 α      in ANC's #3, #2, #5, ...

........................................................................
.............................. CYCLE   18 ..............................
........................................................................
   1     -6.0677587 -0.606776E+01  0.148E+00    2.47       0.0  T
   2     -6.0270866  0.406721E-01  0.195E+00    2.11       1.0  T
   3     -6.0599510 -0.328644E-01  0.990E-01    2.56       1.0  T
   4     -6.0548420  0.510901E-02  0.102E+00    2.24       1.0  T
   5     -6.0697174 -0.148753E-01  0.177E-01    2.37       1.0  T
   6     -6.0693544  0.362980E-03  0.208E-01    2.36       1.0  T
   7     -6.0698757 -0.521314E-03  0.145E-02    2.39       2.3  T
   8     -6.0698766 -0.891493E-06  0.581E-03    2.39       5.7  T
   9     -6.0698766 -0.270456E-07  0.275E-03    2.40      12.1  T
  10     -6.0698766 -0.160780E-07  0.813E-04    2.40      41.0  T
  11     -6.0698766 -0.355916E-08  0.435E-04    2.40      76.6  T
     SCC iter.                  ...        0 min,  0.001 sec
     gradient                   ...        0 min,  0.000 sec
 * total energy  :    -5.9283293 Eh     change        0.4322964E-03 Eh
   gradient norm :     0.0571960 Eh/α   predicted    -0.3591179E-02 (-930.72%)
   displ. norm   :     0.1665761 α      lambda       -0.5581996E-02
   maximum displ.:     0.0910615 α      in ANC's #1, #2, #8, ...

........................................................................
.............................. CYCLE   19 ..............................
........................................................................
   1     -6.0553676 -0.605537E+01  0.501E-01    2.47       0.0  T
   2     -6.0491659  0.620172E-02  0.717E-01    2.63       1.0  T
   3     -6.0542897 -0.512372E-02  0.358E-01    2.44       1.0  T
   4     -6.0542829  0.672963E-05  0.316E-01    2.54       1.0  T
   5     -6.0556944 -0.141147E-02  0.575E-02    2.50       1.0  T
   6     -6.0557384 -0.439679E-04  0.152E-02    2.49       2.2  T
   7     -6.0557366  0.175088E-05  0.119E-02    2.50       2.8  T
   8     -6.0557388 -0.221134E-05  0.253E-03    2.49      13.2  T
   9     -6.0557389 -0.314722E-07  0.441E-04    2.49      75.7  T
  10     -6.0557389 -0.143899E-08  0.189E-04    2.49     176.3  T
     SCC iter.                  ...        0 min,  0.001 sec
     gradient                   ...        0 min,  0.000 sec
 * total energy  :    -5.9311939 Eh     change       -0.2864630E-02 Eh
   gradient norm :     0.0149825 Eh/α   predicted    -0.2868441E-02 (   0.13%)
   displ. norm   :     0.1639039 α      lambda       -0.1120343E-02
   maximum displ.:     0.0939553 α      in ANC's #5, #7, #6, ...

........................................................................
.............................. CYCLE   20 ..............................
........................................................................
   1     -6.0558030 -0.605580E+01  0.432E-01    2.48       0.0  T
   2     -6.0532567  0.254628E-02  0.424E-01    2.58       1.0  T
   3     -6.0465568  0.669992E-02  0.777E-01    2.36       1.0  T
   4     -6.0547523 -0.819550E-02  0.333E-01    2.54       1.0  T
   5     -6.0559646 -0.121237E-02  0.561E-02    2.50       1.0  T
   6     -6.0559204  0.441986E-04  0.685E-02    2.49       1.0  T
   7     -6.0559755 -0.551249E-04  0.112E-02    2.50       3.0  T
   8     -6.0559765 -0.978288E-06  0.202E-03    2.51      16.5  T
   9     -6.0559765 -0.136224E-07  0.940E-04    2.51      35.5  T
  10     -6.0559765 -0.232254E-08  0.389E-04    2.51      85.7  T
     SCC iter.                  ...        0 min,  0.002 sec
     gradient                   ...        0 min,  0.000 sec
 * total energy  :    -5.9316496 Eh     change       -0.4556668E-03 Eh
   gradient norm :     0.0125450 Eh/α   predicted    -0.5752207E-03 (  26.24%)
   displ. norm   :     0.3305916 α      lambda       -0.1599008E-02
   maximum displ.:     0.1677712 α      in ANC's #7, #5, #1, ...
 * RMSD in coord.:     1.6959857 α      energy gain  -0.4165541E+00 Eh

generating ANC from model Hessian ...
Using Lindh-Hessian (1995)
 Shifting diagonal of input Hessian by    1.0591205986109986E-002
 Lowest  eigenvalues of input Hessian
    0.010000    0.010211    0.010338    0.010406    0.010540    0.000000
    0.000000    0.000000    0.000000    0.000000    0.000000    0.010675
    0.010865    0.011201    0.011598    0.012418    0.020799    0.030101
 Highest eigenvalues
    0.353628    0.503811    0.535459    0.549455    0.657814    1.153352


........................................................................
.............................. CYCLE   21 ..............................
........................................................................
   1     -6.0530646 -0.605306E+01  0.793E-01    2.51       0.0  T
   2     -6.0509533  0.211128E-02  0.696E-01    2.43       1.0  T
   3     -6.0311215  0.198318E-01  0.112E+00    2.73       1.0  T
   4     -6.0506739 -0.195524E-01  0.395E-01    2.43       1.0  T
   5     -6.0531814 -0.250753E-02  0.106E-01    2.49       1.0  T
   6     -6.0529828  0.198654E-03  0.138E-01    2.47       1.0  T
   7     -6.0532282 -0.245447E-03  0.934E-03    2.49       3.6  T
   8     -6.0532279  0.354479E-06  0.745E-03    2.49       4.5  T
   9     -6.0532284 -0.504176E-06  0.153E-03    2.49      21.8  T
  10     -6.0532284  0.930121E-08  0.110E-03    2.49      30.2  T
  11     -6.0532284 -0.166098E-07  0.372E-04    2.49      89.7  T
  12     -6.0532284 -0.118136E-08  0.123E-04    2.49     271.8  T
     SCC iter.                  ...        0 min,  0.001 sec
     gradient                   ...        0 min,  0.000 sec
 * total energy  :    -5.9328122 Eh     change       -0.1162676E-02 Eh
   gradient norm :     0.0118365 Eh/α   predicted     0.0000000E+00 (-100.00%)
   displ. norm   :     0.2843696 α      lambda       -0.1372922E-02
   maximum displ.:     0.1751352 α      in ANC's #8, #10, #9, ...

........................................................................
.............................. CYCLE   22 ..............................
........................................................................
   1     -6.0559003 -0.605590E+01  0.602E-01    2.51       0.0  T
   2     -6.0557542  0.146093E-03  0.401E-01    2.49       1.0  T
   3     -6.0368252  0.189290E-01  0.102E+00    2.73       1.0  T
   4     -6.0558833 -0.190581E-01  0.535E-02    2.52       1.0  T
   5     -6.0558893 -0.600492E-05  0.575E-02    2.51       1.0  T
   6     -6.0558896 -0.343391E-06  0.421E-02    2.51       1.0  T
   7     -6.0559167 -0.271137E-04  0.840E-03    2.52       4.0  T
   8     -6.0559171 -0.422400E-06  0.283E-03    2.52      11.8  T
   9     -6.0559172 -0.757964E-07  0.970E-04    2.52      34.4  T
  10     -6.0559172 -0.603996E-08  0.432E-04    2.52      77.2  T
     SCC iter.                  ...        0 min,  0.001 sec
     gradient                   ...        0 min,  0.000 sec
 * total energy  :    -5.9337849 Eh     change       -0.9726640E-03 Eh
   gradient norm :     0.0087417 Eh/α   predicted    -0.7419729E-03 ( -23.72%)
   displ. norm   :     0.3985547 α      lambda       -0.1384620E-02
   maximum displ.:     0.2445778 α      in ANC's #8, #10, #9, ...

........................................................................
.............................. CYCLE   23 ..............................
........................................................................
   1     -6.0590040 -0.605900E+01  0.770E-01    2.49       0.0  T
   2     -6.0576238  0.138014E-02  0.516E-01    2.43       1.0  T
   3     -6.0267780  0.308458E-01  0.146E+00    2.76       1.0  T
   4     -6.0583251 -0.315471E-01  0.299E-01    2.46       1.0  T
   5     -6.0590294 -0.704313E-03  0.846E-02    2.50       1.0  T
   6     -6.0590444 -0.149509E-04  0.767E-02    2.47       1.0  T
   7     -6.0591188 -0.744604E-04  0.157E-02    2.49       2.1  T
   8     -6.0591208 -0.190541E-05  0.445E-03    2.49       7.5  T
   9     -6.0591208 -0.437016E-07  0.150E-03    2.49      22.2  T
  10     -6.0591208 -0.131291E-07  0.847E-04    2.49      39.4  T
  11     -6.0591208 -0.109307E-07  0.153E-04    2.49     217.8  T
     SCC iter.                  ...        0 min,  0.001 sec
     gradient                   ...        0 min,  0.000 sec
 * total energy  :    -5.9347217 Eh     change       -0.9367697E-03 Eh
   gradient norm :     0.0071551 Eh/α   predicted    -0.8022783E-03 ( -14.36%)
   displ. norm   :     0.4312085 α      lambda       -0.9903852E-03
   maximum displ.:     0.2491562 α      in ANC's #8, #10, #9, ...

........................................................................
.............................. CYCLE   24 ..............................
........................................................................
   1     -6.0572736 -0.605727E+01  0.991E-01    2.46       0.0  T
   2     -6.0561498  0.112382E-02  0.661E-01    2.41       1.0  T
   3     -6.0109549  0.451949E-01  0.176E+00    2.78       1.0  T
   4     -6.0559869 -0.450320E-01  0.353E-01    2.42       1.0  T
   5     -6.0572523 -0.126535E-02  0.101E-01    2.48       1.0  T
   6     -6.0573092 -0.569382E-04  0.880E-02    2.45       1.0  T
   7     -6.0573987 -0.895092E-04  0.191E-02    2.46       1.7  T
   8     -6.0574020 -0.330333E-05  0.899E-03    2.46       3.7  T
   9     -6.0574023 -0.285647E-06  0.208E-03    2.46      16.0  T
  10     -6.0574023 -0.223845E-07  0.124E-03    2.46      26.9  T
  11     -6.0574023 -0.209377E-07  0.290E-04    2.46     115.1  T
  12     -6.0574024 -0.103155E-08  0.612E-05    2.46     544.7  T
     SCC iter.                  ...        0 min,  0.002 sec
     gradient                   ...        0 min,  0.000 sec
 * total energy  :    -5.9354644 Eh     change       -0.7427319E-03 Eh
   gradient norm :     0.0126528 Eh/α   predicted    -0.5872704E-03 ( -20.93%)
   displ. norm   :     0.5585312 α      lambda       -0.1323073E-02
   maximum displ.:     0.3419183 α      in ANC's #10, #8, #9, ...

........................................................................
.............................. CYCLE   25 ..............................
........................................................................
   1     -6.0554150 -0.605542E+01  0.128E+00    2.40       0.0  T
   2     -6.0501318  0.528319E-02  0.939E-01    2.29       1.0  T
   3     -5.9801773  0.699545E-01  0.228E+00    2.70       1.0  T
   4     -6.0538586 -0.736813E-01  0.516E-01    2.37       1.0  T
   5     -6.0549061 -0.104749E-02  0.233E-01    2.43       1.0  T
   6     -6.0557814 -0.875289E-03  0.115E-01    2.37       1.0  T
   7     -6.0558622 -0.807926E-04  0.403E-02    2.40       1.0  T
   8     -6.0558835 -0.212873E-04  0.185E-02    2.39       1.8  T
   9     -6.0558855 -0.196731E-05  0.554E-03    2.39       6.0  T
  10     -6.0558858 -0.298012E-06  0.290E-03    2.39      11.5  T
  11     -6.0558859 -0.123247E-06  0.567E-04    2.39      58.7  T
  12     -6.0558859 -0.370962E-08  0.115E-04    2.39     291.0  T
     SCC iter.                  ...        0 min,  0.002 sec
     gradient                   ...        0 min,  0.000 sec
 * total energy  :    -5.9364858 Eh     change       -0.1021372E-02 Eh
   gradient norm :     0.0212859 Eh/α   predicted    -0.8679069E-03 ( -15.03%)
   displ. norm   :     0.6470504 α      lambda       -0.2666394E-02
   maximum displ.:     0.4072473 α      in ANC's #10, #8, #14, ...

........................................................................
.............................. CYCLE   26 ..............................
........................................................................
   1     -6.0613207 -0.606132E+01  0.163E+00    2.24       0.0  T
   2     -6.0423389  0.189817E-01  0.144E+00    2.08       1.0  T
   3     -5.9557893  0.865496E-01  0.276E+00    2.34       1.0  T
   4     -6.0520423 -0.962529E-01  0.850E-01    2.32       1.0  T
   5     -6.0600044 -0.796218E-02  0.403E-01    2.24       1.0  T
   6     -6.0623990 -0.239452E-02  0.148E-01    2.22       1.0  T
   7     -6.0623964  0.258448E-05  0.688E-02    2.24       1.0  T
   8     -6.0624586 -0.622220E-04  0.315E-02    2.24       1.1  T
   9     -6.0624673 -0.869294E-05  0.895E-03    2.24       3.7  T
  10     -6.0624677 -0.384701E-06  0.562E-03    2.24       5.9  T
  11     -6.0624681 -0.437301E-06  0.932E-04    2.24      35.8  T
  12     -6.0624681 -0.709813E-08  0.424E-04    2.24      78.6  T
     SCC iter.                  ...        0 min,  0.002 sec
     gradient                   ...        0 min,  0.000 sec
 * total energy  :    -5.9388675 Eh     change       -0.2381688E-02 Eh
   gradient norm :     0.0326773 Eh/α   predicted    -0.1891365E-02 ( -20.59%)
   displ. norm   :     0.6366067 α      lambda       -0.7613924E-02
   maximum displ.:     0.3093125 α      in ANC's #14, #13, #10, ...

........................................................................
.............................. CYCLE   27 ..............................
........................................................................
   1     -6.0817358 -0.608174E+01  0.256E+00    1.81       0.0  T
   2     -5.9055846  0.176151E+00  0.335E+00    1.70       1.0  T
   3     -5.9002234  0.536122E-02  0.406E+00    1.95       1.0  T
   4     -5.9731643 -0.729409E-01  0.274E+00    1.93       1.0  T
   5     -6.0841517 -0.110987E+00  0.563E-01    1.82       1.0  T
   6     -6.0847836 -0.631915E-03  0.479E-01    1.84       1.0  T
   7     -6.0865079 -0.172428E-02  0.335E-01    1.83       1.0  T
   8     -6.0874096 -0.901740E-03  0.117E-01    1.84       1.0  T
   9     -6.0875687 -0.159066E-03  0.215E-02    1.84       1.6  T
  10     -6.0875725 -0.375136E-05  0.821E-03    1.84       4.1  T
  11     -6.0875727 -0.253769E-06  0.122E-03    1.84      27.3  T
  12     -6.0875727  0.887340E-08  0.107E-03    1.84      31.0  T
  13     -6.0875727 -0.850980E-08  0.297E-04    1.84     112.4  T
  14     -6.0875727 -0.792252E-09  0.111E-04    1.84     299.8  T
     SCC iter.                  ...        0 min,  0.001 sec
     gradient                   ...        0 min,  0.002 sec
 * total energy  :    -5.9432669 Eh     change       -0.4399398E-02 Eh
   gradient norm :     0.0659657 Eh/α   predicted    -0.5349794E-02 (  21.60%)
   displ. norm   :     0.4677215 α      lambda       -0.8001938E-02
   maximum displ.:     0.2129327 α      in ANC's #2, #13, #14, ...

........................................................................
.............................. CYCLE   28 ..............................
........................................................................
   1     -6.0821618 -0.608216E+01  0.191E+00    1.61       0.0  T
   2     -6.0245766  0.575852E-01  0.208E+00    1.63       1.0  T
   3     -5.9339085  0.906681E-01  0.361E+00    1.81       1.0  T
   4     -6.0511808 -0.117272E+00  0.169E+00    1.60       1.0  T
   5     -6.0754728 -0.242920E-01  0.800E-01    1.72       1.0  T
   6     -6.0848075 -0.933467E-02  0.168E-01    1.65       1.0  T
   7     -6.0847236  0.838094E-04  0.142E-01    1.64       1.0  T
   8     -6.0849606 -0.236970E-03  0.427E-02    1.64       1.0  T
   9     -6.0849701 -0.945415E-05  0.102E-02    1.64       3.3  T
  10     -6.0849704 -0.336882E-06  0.585E-03    1.64       5.7  T
  11     -6.0849704 -0.163350E-08  0.327E-03    1.64      10.2  T
  12     -6.0849706 -0.138567E-06  0.709E-04    1.64      47.0  T
  13     -6.0849706 -0.654568E-08  0.139E-04    1.64     239.7  T
     SCC iter.                  ...        0 min,  0.001 sec
     gradient                   ...        0 min,  0.000 sec
 * total energy  :    -5.9507962 Eh     change       -0.7529381E-02 Eh
   gradient norm :     0.0467051 Eh/α   predicted    -0.4876238E-02 ( -35.24%)
   displ. norm   :     0.7833015 α      lambda       -0.1848677E-01
   maximum displ.:     0.4246796 α      in ANC's #13, #8, #4, ...

........................................................................
.............................. CYCLE   29 ..............................
........................................................................
   1     -6.0694593 -0.606946E+01  0.331E+00    1.49       0.0  T
   2     -5.9162917  0.153168E+00  0.353E+00    1.40       1.0  T
   3     -5.7372147  0.179077E+00  0.542E+00    2.00       1.0  T
   4     -6.0323959 -0.295181E+00  0.226E+00    1.48       1.0  T
   5     -6.0564659 -0.240700E-01  0.133E+00    1.67       1.0  T
   6     -6.0778420 -0.213761E-01  0.500E-01    1.56       1.0  T
   7     -6.0784919 -0.649935E-03  0.351E-01    1.55       1.0  T
   8     -6.0800559 -0.156391E-02  0.757E-02    1.53       1.0  T
   9     -6.0800795 -0.236522E-04  0.329E-02    1.53       1.0  T
  10     -6.0800906 -0.110977E-04  0.136E-02    1.53       2.4  T
  11     -6.0800915 -0.895983E-06  0.455E-03    1.53       7.3  T
  12     -6.0800914  0.860404E-07  0.421E-03    1.53       7.9  T
  13     -6.0800916 -0.191073E-06  0.110E-03    1.53      30.2  T
  14     -6.0800916 -0.102620E-07  0.366E-04    1.53      91.2  T
  15     -6.0800916 -0.123077E-08  0.185E-04    1.53     179.8  T
     SCC iter.                  ...        0 min,  0.002 sec
     gradient                   ...        0 min,  0.000 sec
 * total energy  :    -5.9584353 Eh     change       -0.7639046E-02 Eh
   gradient norm :     0.0756477 Eh/α   predicted    -0.1491478E-01 (  95.24%)
   displ. norm   :     0.6577428 α      lambda       -0.1850291E-01
   maximum displ.:     0.3731460 α      in ANC's #11, #13, #18, ...

........................................................................
.............................. CYCLE   30 ..............................
........................................................................
   1     -6.0556602 -0.605566E+01  0.200E+00    1.72       0.0  T
   2     -5.9384098  0.117250E+00  0.277E+00    1.54       1.0  T
   3     -5.9395851 -0.117529E-02  0.289E+00    2.02       1.0  T
   4     -6.0453806 -0.105796E+00  0.119E+00    1.68       1.0  T
   5     -6.0533145 -0.793393E-02  0.657E-01    1.79       1.0  T
   6     -6.0593042 -0.598967E-02  0.260E-01    1.73       1.0  T
   7     -6.0599308 -0.626619E-03  0.885E-02    1.71       1.0  T
   8     -6.0599778 -0.470633E-04  0.530E-02    1.71       1.0  T
   9     -6.0599910 -0.131526E-04  0.116E-02    1.71       2.9  T
  10     -6.0599919 -0.950090E-06  0.366E-03    1.72       9.1  T
  11     -6.0599919  0.643658E-09  0.271E-03    1.71      12.3  T
  12     -6.0599920 -0.463976E-07  0.650E-04    1.72      51.3  T
  13     -6.0599920  0.520317E-09  0.444E-04    1.71      75.0  T
     SCC iter.                  ...        0 min,  0.001 sec
     gradient                   ...        0 min,  0.000 sec
 * total energy  :    -5.9611984 Eh     change       -0.2763068E-02 Eh
   gradient norm :     0.0640994 Eh/α   predicted    -0.1325388E-01 ( 379.68%)
   displ. norm   :     0.5847699 α      lambda       -0.1604725E-01
   maximum displ.:     0.4923190 α      in ANC's #9, #14, #10, ...

........................................................................
.............................. CYCLE   31 ..............................
........................................................................
   1     -6.0946160 -0.609462E+01  0.137E+00    1.77       0.0  T
   2     -6.0936263  0.989690E-03  0.881E-01    1.77       1.0  T
   3     -6.0529785  0.406478E-01  0.171E+00    1.85       1.0  T
   4     -6.0606598 -0.768131E-02  0.140E+00    1.64       1.0  T
   5     -6.0948662 -0.342063E-01  0.121E-01    1.77       1.0  T
   6     -6.0949229 -0.567652E-04  0.666E-02    1.78       1.0  T
   7     -6.0949451 -0.221788E-04  0.202E-02    1.77       1.7  T
   8     -6.0949484 -0.330748E-05  0.875E-03    1.77       3.8  T
   9     -6.0949490 -0.553400E-06  0.558E-03    1.77       6.0  T
  10     -6.0949491 -0.169023E-06  0.762E-04    1.77      43.7  T
  11     -6.0949491 -0.190708E-08  0.314E-04    1.77     106.1  T
     SCC iter.                  ...        0 min,  0.002 sec
     gradient                   ...        0 min,  0.000 sec
 * total energy  :    -5.9690844 Eh     change       -0.7886002E-02 Eh
   gradient norm :     0.0337852 Eh/α   predicted    -0.1076735E-01 (  36.54%)
   displ. norm   :     0.4284632 α      lambda       -0.6780369E-02
   maximum displ.:     0.1833761 α      in ANC's #13, #18, #5, ...

........................................................................
.............................. CYCLE   32 ..............................
........................................................................
   1     -6.0963384 -0.609634E+01  0.202E+00    1.75       0.0  T
   2     -6.0814990  0.148394E-01  0.152E+00    1.79       1.0  T
   3     -6.0785047  0.299424E-02  0.184E+00    1.76       1.0  T
   4     -6.0472417  0.312631E-01  0.173E+00    1.61       1.0  T
   5     -6.1013062 -0.540646E-01  0.167E-01    1.78       1.0  T
   6     -6.1013676 -0.613476E-04  0.107E-01    1.78       1.0  T
   7     -6.1013409  0.267186E-04  0.828E-02    1.78       1.0  T
   8     -6.1013784 -0.375002E-04  0.171E-02    1.78       1.9  T
   9     -6.1013773  0.111083E-05  0.107E-02    1.78       3.1  T
  10     -6.1013786 -0.132946E-05  0.190E-03    1.78      17.5  T
  11     -6.1013786 -0.155651E-07  0.122E-03    1.78      27.4  T
  12     -6.1013786 -0.200846E-07  0.253E-04    1.78     131.5  T
  13     -6.1013786 -0.757873E-09  0.581E-05    1.78     573.6  T
     SCC iter.                  ...        0 min,  0.002 sec
     gradient                   ...        0 min,  0.000 sec
 * total energy  :    -5.9718453 Eh     change       -0.2760905E-02 Eh
   gradient norm :     0.0484671 Eh/α   predicted    -0.4012552E-02 (  45.33%)
   displ. norm   :     0.5497637 α      lambda       -0.9041512E-02
   maximum displ.:     0.2630872 α      in ANC's #14, #2, #1, ...

........................................................................
.............................. CYCLE   33 ..............................
........................................................................
   1     -6.1111924 -0.611119E+01  0.128E+00    2.21       0.0  T
   2     -6.0155874  0.956050E-01  0.233E+00    1.88       1.0  T
   3     -6.0624089 -0.468215E-01  0.183E+00    2.38       1.0  T
   4     -6.1070341 -0.446252E-01  0.987E-01    2.20       1.0  T
   5     -6.1146047 -0.757068E-02  0.216E-01    2.16       1.0  T
   6     -6.1148854 -0.280608E-03  0.152E-01    2.16       1.0  T
   7     -6.1150961 -0.210723E-03  0.722E-02    2.15       1.0  T
   8     -6.1151681 -0.719962E-04  0.119E-02    2.14       2.8  T
   9     -6.1151693 -0.125646E-05  0.246E-03    2.14      13.6  T
  10     -6.1151694 -0.382511E-07  0.111E-03    2.14      30.2  T
  11     -6.1151694 -0.671213E-08  0.311E-04    2.14     107.1  T
  12     -6.1151694  0.142803E-09  0.168E-04    2.14     198.3  T
     SCC iter.                  ...        0 min,  0.002 sec
     gradient                   ...        0 min,  0.001 sec
 * total energy  :    -5.9687344 Eh     change        0.3110841E-02 Eh
   gradient norm :     0.0579810 Eh/α   predicted    -0.5887106E-02 (-289.24%)
   displ. norm   :     0.3454784 α      lambda       -0.1291886E-01
   maximum displ.:     0.1559752 α      in ANC's #14, #3, #11, ...

........................................................................
.............................. CYCLE   34 ..............................
........................................................................
   1     -6.1006790 -0.610068E+01  0.741E-01    2.04       0.0  T
   2     -6.0977176  0.296140E-02  0.574E-01    2.12       1.0  T
   3     -6.0411018  0.566158E-01  0.182E+00    1.82       1.0  T
   4     -6.0985383 -0.574365E-01  0.463E-01    2.06       1.0  T
   5     -6.1009278 -0.238948E-02  0.732E-02    2.06       1.0  T
   6     -6.1009393 -0.114652E-04  0.444E-02    2.06       1.0  T
   7     -6.1009393 -0.275064E-07  0.148E-02    2.06       2.3  T
   8     -6.1009416 -0.234749E-05  0.413E-03    2.06       8.1  T
   9     -6.1009417 -0.294725E-07  0.138E-03    2.06      24.2  T
  10     -6.1009417 -0.216298E-07  0.610E-04    2.06      54.6  T
  11     -6.1009417 -0.271111E-08  0.263E-04    2.06     126.8  T
     SCC iter.                  ...        0 min,  0.001 sec
     gradient                   ...        0 min,  0.000 sec
 * total energy  :    -5.9745879 Eh     change       -0.5853470E-02 Eh
   gradient norm :     0.0251195 Eh/α   predicted    -0.7230402E-02 (  23.52%)
   displ. norm   :     0.3900045 α      lambda       -0.2861719E-02
   maximum displ.:     0.1867406 α      in ANC's #9, #3, #6, ...

........................................................................
.............................. CYCLE   35 ..............................
........................................................................
   1     -6.1136646 -0.611366E+01  0.995E-01    2.03       0.0  T
   2     -6.1078213  0.584336E-02  0.833E-01    2.06       1.0  T
   3     -6.0624271  0.453942E-01  0.179E+00    1.84       1.0  T
   4     -6.1010474 -0.386203E-01  0.964E-01    2.12       1.0  T
   5     -6.1144222 -0.133749E-01  0.926E-02    2.02       1.0  T
   6     -6.1144498 -0.276313E-04  0.695E-02    2.03       1.0  T
   7     -6.1144605 -0.106811E-04  0.304E-02    2.04       1.1  T
   8     -6.1144697 -0.916083E-05  0.667E-03    2.03       5.0  T
   9     -6.1144697 -0.334559E-07  0.262E-03    2.03      12.7  T
  10     -6.1144698 -0.442860E-07  0.804E-04    2.03      41.4  T
  11     -6.1144698 -0.270771E-08  0.315E-04    2.03     105.7  T
     SCC iter.                  ...        0 min,  0.001 sec
     gradient                   ...        0 min,  0.000 sec
 * total energy  :    -5.9744240 Eh     change        0.1638563E-03 Eh
   gradient norm :     0.0265660 Eh/α   predicted    -0.1648499E-02 (*******%)
   displ. norm   :     0.2941837 α      lambda       -0.2135019E-02
   maximum displ.:     0.1570981 α      in ANC's #1, #8, #6, ...

........................................................................
.............................. CYCLE   36 ..............................
........................................................................
   1     -6.1074873 -0.610749E+01  0.787E-01    2.07       0.0  T
   2     -6.1055843  0.190301E-02  0.629E-01    2.06       1.0  T
   3     -6.1051010  0.483261E-03  0.608E-01    2.04       1.0  T
   4     -6.0944717  0.106293E-01  0.854E-01    2.19       1.0  T
   5     -6.1081396 -0.136679E-01  0.697E-02    2.08       1.0  T
   6     -6.1081464 -0.674643E-05  0.436E-02    2.08       1.0  T
   7     -6.1081662 -0.198120E-04  0.189E-02    2.08       1.8  T
   8     -6.1081681 -0.188351E-05  0.515E-03    2.08       6.5  T
   9     -6.1081683 -0.244566E-06  0.129E-03    2.08      25.9  T
  10     -6.1081683  0.385362E-08  0.724E-04    2.08      46.0  T
  11     -6.1081683 -0.683018E-08  0.248E-04    2.08     134.5  T
     SCC iter.                  ...        0 min,  0.001 sec
     gradient                   ...        0 min,  0.000 sec
 * total energy  :    -5.9752743 Eh     change       -0.8503038E-03 Eh
   gradient norm :     0.0253061 Eh/α   predicted    -0.1159895E-02 (  36.41%)
   displ. norm   :     0.1906051 α      lambda       -0.1322061E-02
   maximum displ.:     0.0933795 α      in ANC's #1, #11, #8, ...

........................................................................
.............................. CYCLE   37 ..............................
........................................................................
   1     -6.1070781 -0.610708E+01  0.504E-01    2.12       0.0  T
   2     -6.0877302  0.193478E-01  0.106E+00    1.95       1.0  T
   3     -6.1063710 -0.186407E-01  0.371E-01    2.13       1.0  T
   4     -6.1076725 -0.130152E-02  0.585E-02    2.10       1.0  T
   5     -6.1076675  0.500561E-05  0.660E-02    2.09       1.0  T
   6     -6.1076991 -0.316682E-04  0.271E-02    2.09       1.2  T
   7     -6.1077019 -0.278759E-05  0.989E-03    2.09       3.4  T
   8     -6.1077024 -0.454386E-06  0.452E-03    2.09       7.4  T
   9     -6.1077025 -0.773182E-07  0.994E-04    2.09      33.5  T
  10     -6.1077025 -0.668884E-08  0.315E-04    2.09     105.9  T
     SCC iter.                  ...        0 min,  0.001 sec
     gradient                   ...        0 min,  0.000 sec
 * total energy  :    -5.9751487 Eh     change        0.1256154E-03 Eh
   gradient norm :     0.0265492 Eh/α   predicted    -0.6850448E-03 (-645.35%)
   displ. norm   :     0.1448708 α      lambda       -0.1114340E-02
   maximum displ.:     0.0649619 α      in ANC's #6, #13, #8, ...

........................................................................
.............................. CYCLE   38 ..............................
........................................................................
   1     -6.1065897 -0.610659E+01  0.371E-01    2.03       0.0  T
   2     -6.1021914  0.439836E-02  0.525E-01    2.12       1.0  T
   3     -6.1024876 -0.296200E-03  0.512E-01    1.97       1.0  T
   4     -6.1065798 -0.409222E-02  0.122E-01    2.04       1.0  T
   5     -6.1067508 -0.170994E-03  0.406E-02    2.04       1.0  T
   6     -6.1067533 -0.250884E-05  0.271E-02    2.04       1.2  T
   7     -6.1067577 -0.442174E-05  0.104E-02    2.04       3.2  T
   8     -6.1067586 -0.883223E-06  0.393E-03    2.04       8.5  T
   9     -6.1067587 -0.720262E-07  0.759E-04    2.04      43.9  T
  10     -6.1067587 -0.325239E-08  0.195E-04    2.04     171.0  T
     SCC iter.                  ...        0 min,  0.001 sec
     gradient                   ...        0 min,  0.000 sec
 * total energy  :    -5.9756281 Eh     change       -0.4794014E-03 Eh
   gradient norm :     0.0078023 Eh/α   predicted    -0.5688639E-03 (  18.66%)
   displ. norm   :     0.1502688 α      lambda       -0.3936020E-03
   maximum displ.:     0.0908285 α      in ANC's #5, #4, #1, ...

........................................................................
.............................. CYCLE   39 ..............................
........................................................................
   1     -6.1087047 -0.610870E+01  0.321E-01    2.10       0.0  T
   2     -6.1071977  0.150697E-02  0.374E-01    2.14       1.0  T
   3     -6.1062017  0.996036E-03  0.377E-01    2.05       1.0  T
   4     -6.1077721 -0.157043E-02  0.280E-01    2.11       1.0  T
   5     -6.1087748 -0.100274E-02  0.344E-02    2.10       1.0  T
   6     -6.1087748  0.657633E-07  0.212E-02    2.10       1.6  T
   7     -6.1087793 -0.447997E-05  0.631E-03    2.10       5.3  T
   8     -6.1087794 -0.160283E-06  0.277E-03    2.10      12.0  T
   9     -6.1087795 -0.467050E-07  0.575E-04    2.10      57.9  T
  10     -6.1087795 -0.150222E-08  0.199E-04    2.10     167.6  T
     SCC iter.                  ...        0 min,  0.001 sec
     gradient                   ...        0 min,  0.000 sec
 * total energy  :    -5.9756007 Eh     change        0.2740410E-04 Eh
   gradient norm :     0.0135616 Eh/α   predicted    -0.2012450E-03 (-834.36%)
   displ. norm   :     0.0642889 α      lambda       -0.3102933E-03
   maximum displ.:     0.0284751 α      in ANC's #6, #5, #1, ...

........................................................................
.............................. CYCLE   40 ..............................
........................................................................
   1     -6.1079332 -0.610793E+01  0.147E-01    2.07       0.0  T
   2     -6.1068332  0.109998E-02  0.268E-01    2.03       1.0  T
   3     -6.1079170 -0.108377E-02  0.910E-02    2.07       1.0  T
   4     -6.1078814  0.355731E-04  0.887E-02    2.06       1.0  T
   5     -6.1079727 -0.912514E-04  0.129E-02    2.07       2.6  T
   6     -6.1079726  0.630804E-07  0.821E-03    2.07       4.1  T
   7     -6.1079733 -0.690662E-06  0.121E-03    2.07      27.6  T
   8     -6.1079733  0.270342E-08  0.931E-04    2.07      35.8  T
   9     -6.1079733 -0.441713E-08  0.305E-04    2.07     109.1  T
     SCC iter.                  ...        0 min,  0.001 sec
     gradient                   ...        0 min,  0.000 sec
 * total energy  :    -5.9757744 Eh     change       -0.1736669E-03 Eh
   gradient norm :     0.0038610 Eh/α   predicted    -0.1557895E-03 ( -10.29%)
   displ. norm   :     0.0665707 α      lambda       -0.7142428E-04
   maximum displ.:     0.0307180 α      in ANC's #10, #3, #4, ...

........................................................................
.............................. CYCLE   41 ..............................
........................................................................
   1     -6.1072916 -0.610729E+01  0.190E-01    2.07       0.0  T
   2     -6.1070891  0.202489E-03  0.150E-01    2.05       1.0  T
   3     -6.1043162  0.277291E-02  0.407E-01    2.13       1.0  T
   4     -6.1070891 -0.277296E-02  0.139E-01    2.06       1.0  T
   5     -6.1073029 -0.213734E-03  0.189E-02    2.07       1.8  T
   6     -6.1073061 -0.322416E-05  0.615E-03    2.06       5.4  T
   7     -6.1073062 -0.737793E-07  0.303E-03    2.07      11.0  T
   8     -6.1073062 -0.107231E-07  0.158E-03    2.07      21.1  T
   9     -6.1073062 -0.178079E-07  0.240E-04    2.07     139.0  T
  10     -6.1073062 -0.528715E-10  0.591E-05    2.07     564.1  T
     SCC iter.                  ...        0 min,  0.001 sec
     gradient                   ...        0 min,  0.000 sec
 * total energy  :    -5.9758059 Eh     change       -0.3150993E-04 Eh
   gradient norm :     0.0043875 Eh/α   predicted    -0.3587181E-04 (  13.84%)
   displ. norm   :     0.0757766 α      lambda       -0.7381552E-04
   maximum displ.:     0.0396002 α      in ANC's #4, #7, #3, ...

........................................................................
.............................. CYCLE   42 ..............................
........................................................................
   1     -6.1080804 -0.610808E+01  0.191E-01    2.05       0.0  T
   2     -6.1080337  0.467254E-04  0.132E-01    2.04       1.0  T
   3     -6.1040747  0.395900E-02  0.454E-01    2.13       1.0  T
   4     -6.1080380 -0.396328E-02  0.624E-02    2.05       1.0  T
   5     -6.1080797 -0.417605E-04  0.204E-02    2.05       1.6  T
   6     -6.1080836 -0.385253E-05  0.507E-03    2.05       6.6  T
   7     -6.1080836 -0.349263E-07  0.229E-03    2.05      14.5  T
   8     -6.1080836 -0.165056E-07  0.932E-04    2.05      35.8  T
   9     -6.1080836 -0.607359E-08  0.223E-04    2.05     149.6  T
     SCC iter.                  ...        0 min,  0.001 sec
     gradient                   ...        0 min,  0.001 sec
 * total energy  :    -5.9758604 Eh     change       -0.5446750E-04 Eh
   gradient norm :     0.0029727 Eh/α   predicted    -0.3711886E-04 ( -31.85%)
   displ. norm   :     0.1386641 α      lambda       -0.8215936E-04
   maximum displ.:     0.0721686 α      in ANC's #4, #7, #5, ...
 * RMSD in coord.:     1.1415762 α      energy gain  -0.4421081E-01 Eh

generating ANC from model Hessian ...
Using Lindh-Hessian (1995)
 Shifting diagonal of input Hessian by    1.0378190551146025E-002
 Lowest  eigenvalues of input Hessian
    0.010000    0.010027    0.010220    0.010279    0.010307    0.000000
    0.000000    0.000000    0.000000    0.000000    0.000000    0.010396
    0.010474    0.010638    0.010805    0.010957    0.011363    0.013793
 Highest eigenvalues
    0.381805    0.481330    0.542238    0.568201    0.728833    1.389490


........................................................................
.............................. CYCLE   43 ..............................
........................................................................
   1     -6.1083556 -0.610836E+01  0.392E-01    2.06       0.0  T
   2     -6.1083443  0.113344E-04  0.261E-01    2.05       1.0  T
   3     -6.1048143  0.352998E-02  0.423E-01    2.13       1.0  T
   4     -6.1083375 -0.352314E-02  0.481E-02    2.05       1.0  T
   5     -6.1083456 -0.810715E-05  0.398E-02    2.06       1.0  T
   6     -6.1083594 -0.137931E-04  0.858E-03    2.05       3.9  T
   7     -6.1083596 -0.202543E-06  0.460E-03    2.05       7.2  T
   8     -6.1083596 -0.788280E-07  0.176E-03    2.05      18.9  T
   9     -6.1083597 -0.263872E-07  0.426E-04    2.05      78.2  T
  10     -6.1083597 -0.127979E-08  0.885E-05    2.05     376.7  T
     SCC iter.                  ...        0 min,  0.003 sec
     gradient                   ...        0 min,  0.000 sec
 * total energy  :    -5.9759143 Eh     change       -0.5391207E-04 Eh
   gradient norm :     0.0024493 Eh/α   predicted     0.0000000E+00 (-100.00%)
   displ. norm   :     0.0403994 α      lambda       -0.2863694E-04
   maximum displ.:     0.0201291 α      in ANC's #7, #6, #12, ...

........................................................................
.............................. CYCLE   44 ..............................
........................................................................
   1     -6.1086037 -0.610860E+01  0.150E-01    2.06       0.0  T
   2     -6.1085920  0.116888E-04  0.102E-01    2.06       1.0  T
   3     -6.1065823  0.200971E-02  0.318E-01    2.01       1.0  T
   4     -6.1085771 -0.199484E-02  0.453E-02    2.06       1.0  T
   5     -6.1086045 -0.273610E-04  0.101E-02    2.06       3.3  T
   6     -6.1086046 -0.148943E-06  0.192E-03    2.06      17.3  T
   7     -6.1086046 -0.181634E-07  0.576E-04    2.06      57.9  T
   8     -6.1086046 -0.230053E-08  0.142E-04    2.06     234.6  T
     SCC iter.                  ...        0 min,  0.001 sec
     gradient                   ...        0 min,  0.000 sec
 * total energy  :    -5.9759347 Eh     change       -0.2044310E-04 Eh
   gradient norm :     0.0007469 Eh/α   predicted    -0.1434278E-04 ( -29.84%)
   displ. norm   :     0.1032282 α      lambda       -0.2544235E-04
   maximum displ.:     0.0552775 α      in ANC's #6, #4, #7, ...

........................................................................
.............................. CYCLE   45 ..............................
........................................................................
   1     -6.1083588 -0.610836E+01  0.312E-01    2.06       0.0  T
   2     -6.1083253  0.334583E-04  0.208E-01    2.07       1.0  T
   3     -6.1028571  0.546816E-02  0.532E-01    1.98       1.0  T
   4     -6.1079954 -0.513828E-02  0.151E-01    2.08       1.0  T
   5     -6.1083625 -0.367074E-03  0.226E-02    2.06       1.5  T
   6     -6.1083626 -0.809597E-07  0.820E-03    2.06       4.1  T
   7     -6.1083634 -0.797369E-06  0.300E-03    2.06      11.1  T
   8     -6.1083635 -0.991538E-07  0.771E-04    2.06      43.2  T
   9     -6.1083635 -0.123594E-08  0.189E-04    2.06     176.3  T
     SCC iter.                  ...        0 min,  0.001 sec
     gradient                   ...        0 min,  0.000 sec
 * total energy  :    -5.9759408 Eh     change       -0.6039046E-05 Eh
   gradient norm :     0.0016254 Eh/α   predicted    -0.1278239E-04 ( 111.66%)
   displ. norm   :     0.0791670 α      lambda       -0.2960936E-04
   maximum displ.:     0.0413289 α      in ANC's #11, #6, #4, ...

........................................................................
.............................. CYCLE   46 ..............................
........................................................................
   1     -6.1081330 -0.610813E+01  0.194E-01    2.06       0.0  T
   2     -6.1081287  0.435358E-05  0.121E-01    2.07       1.0  T
   3     -6.1078050  0.323735E-03  0.150E-01    2.05       1.0  T
   4     -6.1079290 -0.123998E-03  0.102E-01    2.08       1.0  T
   5     -6.1081342 -0.205202E-03  0.123E-02    2.06       2.7  T
   6     -6.1081349 -0.760443E-06  0.309E-03    2.06      10.8  T
   7     -6.1081350 -0.547373E-07  0.125E-03    2.06      26.7  T
   8     -6.1081350 -0.536362E-08  0.434E-04    2.06      76.8  T
   9     -6.1081350 -0.185461E-08  0.124E-04    2.06     268.6  T
     SCC iter.                  ...        0 min,  0.001 sec
     gradient                   ...        0 min,  0.000 sec
 * total energy  :    -5.9759504 Eh     change       -0.9664932E-05 Eh
   gradient norm :     0.0020769 Eh/α   predicted    -0.1484536E-04 (  53.60%)
   displ. norm   :     0.0360455 α      lambda       -0.2034806E-04
   maximum displ.:     0.0212797 α      in ANC's #7, #12, #5, ...

........................................................................
.............................. CYCLE   47 ..............................
........................................................................
   1     -6.1090222 -0.610902E+01  0.135E-01    2.06       0.0  T
   2     -6.1090163  0.594512E-05  0.895E-02    2.06       1.0  T
   3     -6.1078362  0.118007E-02  0.243E-01    2.10       1.0  T
   4     -6.1090142 -0.117796E-02  0.265E-02    2.06       1.3  T
   5     -6.1090225 -0.828447E-05  0.974E-03    2.06       3.4  T
   6     -6.1090227 -0.276995E-06  0.104E-03    2.06      32.0  T
   7     -6.1090227 -0.482253E-08  0.295E-04    2.06     113.2  T
   8     -6.1090228 -0.850227E-09  0.874E-05    2.06     381.4  T
     SCC iter.                  ...        0 min,  0.001 sec
     gradient                   ...        0 min,  0.000 sec
 * total energy  :    -5.9759606 Eh     change       -0.1012731E-04 Eh
   gradient norm :     0.0007928 Eh/α   predicted    -0.1018596E-04 (   0.58%)
   displ. norm   :     0.0303955 α      lambda       -0.6219765E-05
   maximum displ.:     0.0139170 α      in ANC's #10, #4, #6, ...

........................................................................
.............................. CYCLE   48 ..............................
........................................................................
   1     -6.1087775 -0.610878E+01  0.816E-02    2.06       0.0  T
   2     -6.1087755  0.198335E-05  0.522E-02    2.06       1.0  T
   3     -6.1083671  0.408390E-03  0.143E-01    2.08       1.0  T
   4     -6.1087773 -0.410249E-03  0.743E-03    2.06       4.5  T
   5     -6.1087771  0.259488E-06  0.726E-03    2.06       4.6  T
   6     -6.1087776 -0.531219E-06  0.150E-03    2.06      22.2  T
   7     -6.1087776 -0.938470E-08  0.701E-04    2.06      47.6  T
   8     -6.1087776 -0.121849E-08  0.254E-04    2.06     131.4  T
     SCC iter.                  ...        0 min,  0.001 sec
     gradient                   ...        0 min,  0.000 sec
 * total energy  :    -5.9759653 Eh     change       -0.4709016E-05 Eh
   gradient norm :     0.0003476 Eh/α   predicted    -0.3111800E-05 ( -33.92%)
   displ. norm   :     0.0329065 α      lambda       -0.2587279E-05
   maximum displ.:     0.0198284 α      in ANC's #4, #1, #6, ...

   *** GEOMETRY OPTIMIZATION CONVERGED AFTER 48 ITERATIONS ***

------------------------------------------------------------------------
 total energy gain   :        -0.4608698 Eh     -289.2002 kcal/mol
 total RMSD          :         2.3907573 a0        1.2651 Å
 total power (kW/mol):       -25.2086163 (step)********** (real)
------------------------------------------------------------------------

 ANCopt (total)                0 d,  0 h,  0 min,  0.108 sec
 optimizer setup                ...        0 min,  0.000 sec (  0.022%)
 model hessian                  ...        0 min,  0.000 sec (  0.395%)
 ANC generation                 ...        0 min,  0.000 sec (  0.147%)
 coordinate transformation      ...        0 min,  0.000 sec (  0.097%)
 single point calculation       ...        0 min,  0.103 sec ( 95.914%)
 optimization log               ...        0 min,  0.001 sec (  1.150%)
 hessian update                 ...        0 min,  0.001 sec (  0.896%)
 rational function              ...        0 min,  0.001 sec (  0.715%)

================
 final structure:
================
9
 xtb: 6.5.1 (conda-forge)
Be           0.71678986049881        0.21026143035759        0.23478807580492
B            1.96975220178171        0.50713733120685        1.42320748075301
B            0.92065181551503       -0.46203544513515        1.83754212190877
H            0.16360147713360       -1.21676072619092        2.31715213659411
H            2.87321406018450        1.22481566335507        1.21801829513398
H            1.33858000323265        2.03684993763283        3.38529778815815
H            1.30449779791669        2.56803928307360        3.96974083799680
H            0.42874649667907       -0.18964061048250        4.91008466663995
H            0.14016628705821       -0.44899886381680        5.58616859700896

 Bond Distances (Angstroems)
 ---------------------------
Be1-B2=1.7523        Be1-B3=1.7500        B2-Be1=1.7523        B2-B3=1.4871         B2-H5=1.1719         B3-Be1=1.7500        
B3-B2=1.4871         B3-H4=1.1716         H4-B3=1.1716         H5-B2=1.1719         H6-H7=0.7905         H7-H6=0.7905         
H8-H9=0.7795         H9-H8=0.7795         
 H  H  Rav=0.7850 sigma=0.0055  Rmin=0.7795  Rmax=0.7905     2
 B  H  Rav=1.1718 sigma=0.0001  Rmin=1.1716  Rmax=1.1719     2
 B  Be Rav=1.7511 sigma=0.0011  Rmin=1.7500  Rmax=1.7523     2
 B  B  Rav=1.4871 sigma=0.0000  Rmin=1.4871  Rmax=1.4871     1

 selected bond angles (degree)
 --------------------
B3-Be1-B2= 50.25               B3-B2-Be1= 64.79               H5-B2-Be1=122.43               H5-B2-B3=172.62                
B2-B3-Be1= 64.95               H4-B3-Be1=123.17               H4-B3-B2=171.76                

 selected dihedral angles (degree)
 ---------------------------------
H5-B2-Be1-B3=178.29           H4-B3-Be1-B2=178.38           Be1-B3-B2-H5=191.32           H4-B3-B2-Be1=189.49           
H4-B3-B2-H5= 20.81            

 CMA Distance (Angstroems)
 ---------------------------
R(CMA):  1.6893
           -------------------------------------------------
          |                Final Singlepoint                |
           -------------------------------------------------

          ...................................................
          :                      SETUP                      :
          :.................................................:
          :  # basis functions                  18          :
          :  # atomic orbitals                  18          :
          :  # shells                           12          :
          :  # electrons                        14          :
          :  max. iterations                   250          :
          :  Hamiltonian                  GFN2-xTB          :
          :  restarted?                      false          :
          :  GBSA solvation                  false          :
          :  PC potential                    false          :
          :  electronic temp.          300.0000000     K    :
          :  accuracy                    1.0000000          :
          :  -> integral cutoff          0.2500000E+02      :
          :  -> integral neglect         0.1000000E-07      :
          :  -> SCF convergence          0.1000000E-05 Eh   :
          :  -> wf. convergence          0.1000000E-03 e    :
          :  Broyden damping             0.4000000          :
          ...................................................

 iter      E             dE          RMSdq      gap      omega  full diag
   1     -6.1087776 -0.610878E+01  0.620E-05    2.06       0.0  T
   2     -6.1087776  0.225314E-09  0.115E-04    2.06     290.5  T
   3     -6.1087776 -0.169070E-09  0.665E-05    2.06     501.5  T

   *** convergence criteria satisfied after 3 iterations ***

         #    Occupation            Energy/Eh            Energy/eV
      -------------------------------------------------------------
         1        2.0000           -0.4458408             -12.1319
         2        2.0000           -0.4376920             -11.9102
         3        2.0000           -0.4195311             -11.4160
         4        2.0000           -0.3997817             -10.8786
         5        2.0000           -0.3525212              -9.5926
         6        2.0000           -0.2894421              -7.8761
         7        2.0000           -0.2686660              -7.3108 (HOMO)
         8                         -0.1929557              -5.2506 (LUMO)
         9                         -0.1898376              -5.1657
        10                         -0.1044388              -2.8419
        11                         -0.0698617              -1.9010
        12                          0.0733258               1.9953
       ...                                ...                  ...
        18                          1.1912015              32.4142
      -------------------------------------------------------------
                  HL-Gap            0.0757104 Eh            2.0602 eV
             Fermi-level           -0.2308109 Eh           -6.2807 eV

 SCC (total)                   0 d,  0 h,  0 min,  0.001 sec
 SCC setup                      ...        0 min,  0.000 sec (  3.128%)
 Dispersion                     ...        0 min,  0.000 sec (  5.275%)
 classical contributions        ...        0 min,  0.000 sec (  6.589%)
 integral evaluation            ...        0 min,  0.000 sec (  4.498%)
 iterations                     ...        0 min,  0.000 sec ( 37.812%)
 molecular gradient             ...        0 min,  0.000 sec ( 34.462%)
 printout                       ...        0 min,  0.000 sec (  7.144%)

         :::::::::::::::::::::::::::::::::::::::::::::::::::::
         ::                     SUMMARY                     ::
         :::::::::::::::::::::::::::::::::::::::::::::::::::::
         :: total energy              -5.975965260129 Eh    ::
         :: gradient norm              0.000346545239 Eh/a0 ::
         :: HOMO-LUMO gap              2.060183595362 eV    ::
         ::.................................................::
         :: SCC energy                -6.108777621420 Eh    ::
         :: -> isotropic ES            0.008338231417 Eh    ::
         :: -> anisotropic ES          0.022075340013 Eh    ::
         :: -> anisotropic XC          0.012864539575 Eh    ::
         :: -> dispersion             -0.002495864974 Eh    ::
         :: repulsion energy           0.132808338507 Eh    ::
         :: add. restraining           0.000000000000 Eh    ::
         :: total charge               0.000000000000 e     ::
         :::::::::::::::::::::::::::::::::::::::::::::::::::::

           -------------------------------------------------
          |                Property Printout                |
           -------------------------------------------------

    * Orbital Energies and Occupations

         #    Occupation            Energy/Eh            Energy/eV
      -------------------------------------------------------------
         1        2.0000           -0.4458408             -12.1319
         2        2.0000           -0.4376920             -11.9102
         3        2.0000           -0.4195311             -11.4160
         4        2.0000           -0.3997817             -10.8786
         5        2.0000           -0.3525212              -9.5926
         6        2.0000           -0.2894421              -7.8761
         7        2.0000           -0.2686660              -7.3108 (HOMO)
         8                         -0.1929557              -5.2506 (LUMO)
         9                         -0.1898376              -5.1657
        10                         -0.1044388              -2.8419
        11                         -0.0698617              -1.9010
        12                          0.0733258               1.9953
        13                          0.1406373               3.8269
        14                          0.1650159               4.4903
        15                          0.3491192               9.5000
        16                          0.3605156               9.8101
        17                          0.9060556              24.6550
        18                          1.1912015              32.4142
      -------------------------------------------------------------
                  HL-Gap            0.0757104 Eh            2.0602 eV
             Fermi-level           -0.2308109 Eh           -6.2807 eV

     #   Z          covCN         q      C6AA      α(0)
     1   4 Be       1.814     0.356    15.298     9.061
     2   5 B        2.824    -0.022    21.843     7.807
     3   5 B        2.825    -0.024    21.883     7.814
     4   1 H        0.938    -0.144     7.382     4.248
     5   1 H        0.938    -0.145     7.428     4.261
     6   1 H        0.768     0.012     2.951     2.706
     7   1 H        0.768    -0.031     3.755     3.053
     8   1 H        0.805     0.014     2.869     2.660
     9   1 H        0.805    -0.017     3.429     2.909

 Mol. C6AA /au·bohr⁶  :        652.435793
 Mol. C8AA /au·bohr⁸  :      16103.386438
 Mol. α(0) /au        :         44.518371


Wiberg/Mayer (AO) data.
largest (>0.10) Wiberg bond orders for each atom

 ---------------------------------------------------------------------------
     #   Z sym  total        # sym  WBO       # sym  WBO       # sym  WBO
 ---------------------------------------------------------------------------
     1   4 Be   2.136 --     3 B    1.029     2 B    1.024
     2   5 B    3.674 --     3 B    1.694     1 Be   1.024     5 H    0.925
     3   5 B    3.678 --     2 B    1.694     1 Be   1.029     4 H    0.925
     4   1 H    0.979 --     3 B    0.925
     5   1 H    0.979 --     2 B    0.925
     6   1 H    1.000 --     7 H    0.976
     7   1 H    0.999 --     6 H    0.976
     8   1 H    1.000 --     9 H    0.996
     9   1 H    0.999 --     8 H    0.996
 ---------------------------------------------------------------------------

Topologies differ in total number of bonds
Writing topology from bond orders to xtbtopo.mol

molecular dipole:
                 x           y           z       tot (Debye)
 q only:       -0.511       0.043      -1.149
   full:       -0.786       0.123      -1.703       4.777
molecular quadrupole (traceless):
                xx          xy          yy          xz          yz          zz
 q only:       -0.174      -2.734       2.877      -3.711       0.050      -2.703
  q+dip:       -0.217       0.568       3.806      -6.675      -1.330      -3.588
   full:       -0.229      -0.704       3.775      -6.062      -0.880      -3.546

           -------------------------------------------------
          |                Geometry Summary                 |
           -------------------------------------------------

      molecular mass/u    :       36.6818837
   center of mass at/Å    :        1.1996797       0.1741562       1.6063597
  moments of inertia/u·Å² :        0.3306780E+02   0.6178321E+02   0.8076555E+02
rotational constants/cm⁻¹ :        0.5097899E+00   0.2728513E+00   0.2087231E+00

 * 7 selected distances

     #   Z          #   Z                                           value/Å
     1   4 Be       2   5 B                                       1.7522532 (max)
     1   4 Be       3   5 B                                       1.7499611
     2   5 B        3   5 B                                       1.4871386
     3   5 B        4   1 H                                       1.1716490
     2   5 B        5   1 H                                       1.1719251
     6   1 H        7   1 H                                       0.7905046
     8   1 H        9   1 H                                       0.7795094 (min)

 * 4 distinct bonds (by element types)

   Z      Z             #   av. dist./Å        max./Å        min./Å
   1 H    1 H           2     0.7850070     0.7905046     0.7795094
   1 H    5 B           2     1.1717871     1.1719251     1.1716490
   4 Be   5 B           2     1.7511071     1.7522532     1.7499611
   5 B    5 B           1     1.4871386     1.4871386     1.4871386


optimized geometry written to: xtbopt.xyz


           -------------------------------------------------
          | TOTAL ENERGY               -5.975965260129 Eh   |
          | GRADIENT NORM               0.000346545239 Eh/α |
          | HOMO-LUMO GAP               2.060183595362 eV   |
           -------------------------------------------------
########################################################################
[WARNING] Runtime exception occurred
-2- restart_readRestart: Dimension missmatch in restart file.
-1- restart_readRestart: Number of electron missmatch in restart file.
########################################################################

------------------------------------------------------------------------
 * finished run on 2025/06/07 at 03:27:43.176     
------------------------------------------------------------------------
 total:
 * wall-time:     0 d,  0 h,  0 min,  0.123 sec
 *  cpu-time:     0 d,  0 h,  0 min,  1.796 sec
 * ratio c/w:    14.546 speedup
 SCF:
 * wall-time:     0 d,  0 h,  0 min,  0.011 sec
 *  cpu-time:     0 d,  0 h,  0 min,  0.154 sec
 * ratio c/w:    13.823 speedup
Note: The following floating-point exceptions are signalling: IEEE_UNDERFLOW_FLAG
normal termination of xtb
 ANC optimizer:
 * wall-time:     0 d,  0 h,  0 min,  0.109 sec
 *  cpu-time:     0 d,  0 h,  0 min,  1.607 sec
 * ratio c/w:    14.690 speedup

