      -----------------------------------------------------------      
     |                   =====================                   |     
     |                           x T B                           |     
     |                   =====================                   |     
     |                         S. Grimme                         |     
     |          Mulliken Center for Theoretical Chemistry        |     
     |                    University of Bonn                     |     
      -----------------------------------------------------------      

   * xtb version 6.5.1 (conda-forge) compiled by 'runner@Mac-1657629245115.local' on 2022-07-12

   xtb is free software: you can redistribute it and/or modify it under
   the terms of the GNU Lesser General Public License as published by
   the Free Software Foundation, either version 3 of the License, or
   (at your option) any later version.
   
   xtb is distributed in the hope that it will be useful,
   but WITHOUT ANY WARRANTY; without even the implied warranty of
   MERCHANTABILITY or FITNESS FOR A PARTICULAR PURPOSE.  See the
   GNU Lesser General Public License for more details.
   
   Cite this work as:
   * C. Bannwarth, E. Caldeweyher, S. Ehlert, A. Hansen, P. Pracht,
     J. Seibert, S. Spicher, S. Grimme, WIREs Comput. Mol. Sci., 2020, 11,
     e01493. DOI: 10.1002/wcms.1493
   
   for GFN2-xTB:
   * C. Bannwarth, S. Ehlert and S. Grimme., J. Chem. Theory Comput., 2019,
     15, 1652-1671. DOI: 10.1021/acs.jctc.8b01176
   for GFN1-xTB:
   * S. Grimme, C. Bannwarth, P. Shushkov, J. Chem. Theory Comput., 2017,
     13, 1989-2009. DOI: 10.1021/acs.jctc.7b00118
   for GFN0-xTB:
   * P. Pracht, E. Caldeweyher, S. Ehlert, S. Grimme, ChemRxiv, 2019, preprint.
     DOI: 10.26434/chemrxiv.8326202.v1
   for GFN-FF:
   * S. Spicher and S. Grimme, Angew. Chem. Int. Ed., 2020, 59, 15665-15673.
     DOI: 10.1002/anie.202004239
   
   for ALPB and GBSA implicit solvation:
   * S. Ehlert, M. Stahn, S. Spicher, S. Grimme, J. Chem. Theory Comput.,
     2021, 17, 4250-4261. DOI: 10.1021/acs.jctc.1c00471
   
   for DFT-D4:
   * E. Caldeweyher, C. Bannwarth and S. Grimme, J. Chem. Phys., 2017,
     147, 034112. DOI: 10.1063/1.4993215
   * E. Caldeweyher, S. Ehlert, A. Hansen, H. Neugebauer, S. Spicher,
     C. Bannwarth and S. Grimme, J. Chem. Phys., 2019, 150, 154122.
     DOI: 10.1063/1.5090222
   * E. Caldeweyher, J.-M. Mewes, S. Ehlert and S. Grimme, Phys. Chem. Chem. Phys.
     2020, 22, 8499-8512. DOI: 10.1039/D0CP00502A
   
   for sTDA-xTB:
   * S. Grimme and C. Bannwarth, J. Chem. Phys., 2016, 145, 054103.
     DOI: 10.1063/1.4959605
   
   in the mass-spec context:
   * V. Asgeirsson, C. Bauer and S. Grimme, Chem. Sci., 2017, 8, 4879.
     DOI: 10.1039/c7sc00601b
   * J. Koopman and S. Grimme, ACS Omega 2019, 4, 12, 15120-15133.
     DOI: 10.1021/acsomega.9b02011
   
   for metadynamics refer to:
   * S. Grimme, J. Chem. Theory Comput., 2019, 155, 2847-2862
     DOI: 10.1021/acs.jctc.9b00143
   
   for SPH calculations refer to:
   * S. Spicher and S. Grimme, J. Chem. Theory Comput., 2021, 17, 1701-1714
     DOI: 10.1021/acs.jctc.0c01306
   
   with help from (in alphabetical order)
   P. Atkinson, C. Bannwarth, F. Bohle, G. Brandenburg, E. Caldeweyher
   M. Checinski, S. Dohm, S. Ehlert, S. Ehrlich, I. Gerasimov, C. Hölzer
   A. Katbashev, J. Koopman, C. Lavigne, S. Lehtola, F. März, M. Müller,
   F. Musil, H. Neugebauer, J. Pisarek, C. Plett, P. Pracht, F. Pultar,
   J. Seibert, P. Shushkov, S. Spicher, M. Stahn, M. Steiner, T. Strunk,
   J. Stückrath, T. Rose, and J. Unsleber
   
 * started run on 2025/06/07 at 03:27:40.366     

           -------------------------------------------------
          |                Calculation Setup                |
           -------------------------------------------------

          program call               : xtb B2Be2H5.xyz --gfn 2 --opt
          coordinate file            : B2Be2H5.xyz
          omp threads                :                    16

   ID    Z sym.   atoms
    1    4 Be     1, 2
    2    5 B      3, 4
    3    1 H      5-9

molecular fragmentation (1/2 indicates fragments):
122222222
# atoms in fragment 1/2:     1     8
 fragment masses (1/2) :        9.01       35.67
CMA distance (Bohr)    :   7.320
constraining FC (au)   :  0.0500

           -------------------------------------------------
          |                 G F N 2 - x T B                 |
           -------------------------------------------------

        Reference                      10.1021/acs.jctc.8b01176
      * Hamiltonian:
        H0-scaling (s, p, d)           1.850000    2.230000    2.230000
        zeta-weighting                 0.500000
      * Dispersion:
        s8                             2.700000
        a1                             0.520000
        a2                             5.000000
        s9                             5.000000
      * Repulsion:
        kExp                           1.500000    1.000000
        rExp                           1.000000
      * Coulomb:
        alpha                          2.000000
        third order                    shell-resolved
        anisotropic                    true
        a3                             3.000000
        a5                             4.000000
        cn-shift                       1.200000
        cn-exp                         4.000000
        max-rad                        5.000000


          ...................................................
          :                      SETUP                      :
          :.................................................:
          :  # basis functions                  21          :
          :  # atomic orbitals                  21          :
          :  # shells                           13          :
          :  # electrons                        15          :
          :  max. iterations                   250          :
          :  Hamiltonian                  GFN2-xTB          :
          :  restarted?                      false          :
          :  GBSA solvation                  false          :
          :  PC potential                    false          :
          :  electronic temp.          300.0000000     K    :
          :  accuracy                    1.0000000          :
          :  -> integral cutoff          0.2500000E+02      :
          :  -> integral neglect         0.1000000E-07      :
          :  -> SCF convergence          0.1000000E-05 Eh   :
          :  -> wf. convergence          0.1000000E-03 e    :
          :  Broyden damping             0.4000000          :
          ...................................................

 iter      E             dE          RMSdq      gap      omega  full diag
   1     12.8446458  0.128446E+02  0.261E+01    0.09       0.0  T
   2      3.4658056 -0.937884E+01  0.290E+01    1.48       1.0  T
   3      0.0046776 -0.346113E+01  0.199E+01    0.99       1.0  T
   4      1.8235758  0.181890E+01  0.188E+01    1.62       1.0  T
   5     -1.3058119 -0.312939E+01  0.138E+01    0.33       1.0  T
   6     12.0598244  0.133656E+02  0.215E+01    1.17       1.0  T
   7      1.8822037 -0.101776E+02  0.141E+01    0.95       1.0  T
   8     -3.4136781 -0.529588E+01  0.983E+00    0.72       1.0  T
   9     -3.6761343 -0.262456E+00  0.882E+00    0.92       1.0  T
  10     -2.9401218  0.736012E+00  0.976E+00    0.62       1.0  T
  11     -4.6794972 -0.173938E+01  0.176E+01    0.23       1.0  T
  12     -5.5249443 -0.845447E+00  0.886E+00    0.50       1.0  T
  13     -5.5854788 -0.605345E-01  0.869E+00    0.17       1.0  T
  14     -5.5289080  0.565708E-01  0.840E+00    0.54       1.0  T
  15     -5.5528293 -0.239213E-01  0.837E+00    0.39       1.0  T
  16     -5.3013180  0.251511E+00  0.141E+01    0.13       1.0  T
  17     -5.2917351  0.958289E-02  0.763E+00    1.32       1.0  T
  18     -5.2735026  0.182325E-01  0.781E+00    1.32       1.0  T
  19     -3.9397414  0.133376E+01  0.113E+01    0.90       1.0  T
  20     -3.7630817  0.176660E+00  0.104E+01    0.73       1.0  T
  21     -3.7480982  0.149835E-01  0.861E+00    0.71       1.0  T
  22     -3.7690789 -0.209806E-01  0.895E+00    0.73       1.0  T
  23     -5.1628117 -0.139373E+01  0.764E+00    1.39       1.0  T
  24     -5.1890060 -0.261944E-01  0.776E+00    1.39       1.0  T
  25     -5.1128740  0.761320E-01  0.733E+00    1.39       1.0  T
  26     -5.2447920 -0.131918E+00  0.801E+00    1.39       1.0  T
  27     -5.2391289  0.566305E-02  0.797E+00    1.39       1.0  T
  28     -5.3266641 -0.875352E-01  0.855E+00    1.38       1.0  T
  29     -5.3356662 -0.900209E-02  0.853E+00    1.37       1.0  T
  30     -5.3344389  0.122733E-02  0.845E+00    1.38       1.0  T
  31     -5.3820267 -0.475878E-01  0.757E+00    1.34       1.0  T
  32     -5.3915870 -0.956033E-02  0.755E+00    1.33       1.0  T
  33     -5.4150156 -0.234286E-01  0.651E+00    1.31       1.0  T
  34     -5.4396841 -0.246685E-01  0.654E+00    1.27       1.0  T
  35     -5.5003412 -0.606571E-01  0.564E+00    1.15       1.0  T
  36     -5.5234575 -0.231164E-01  0.534E+00    1.06       1.0  T
  37     -5.5647245 -0.412669E-01  0.495E+00    0.90       1.0  T
  38     -5.6258805 -0.611560E-01  0.373E+00    0.55       1.0  T
  39     -5.6252214  0.659113E-03  0.356E+00    0.52       1.0  T
  40     -5.6397134 -0.144920E-01  0.348E+00    0.40       1.0  T
  41     -5.6385966  0.111680E-02  0.351E+00    0.44       1.0  T
  42     -5.6431202 -0.452364E-02  0.341E+00    0.39       1.0  T
  43     -5.6430916  0.286330E-04  0.341E+00    0.39       1.0  T
  44     -5.6452844 -0.219276E-02  0.349E+00    0.34       1.0  T
  45     -5.6479852 -0.270078E-02  0.365E+00    0.28       1.0  T
  46     -5.6510715 -0.308634E-02  0.342E+00    0.29       1.0  T
  47     -5.6648430 -0.137715E-01  0.242E+00    0.34       1.0  T
  48     -5.6667637 -0.192068E-02  0.215E+00    0.36       1.0  T
  49     -5.6153219  0.514418E-01  0.497E+00    0.22       1.0  T
  50     -5.6682788 -0.529569E-01  0.248E+00    0.26       1.0  T
  51     -5.6529964  0.152824E-01  0.322E+00    0.25       1.0  T
  52     -5.6446711  0.832535E-02  0.356E+00    0.23       1.0  T
  53     -5.6576371 -0.129661E-01  0.277E+00    0.25       1.0  T
  54     -5.6603864 -0.274930E-02  0.234E+00    0.26       1.0  T
  55     -5.6517843  0.860212E-02  0.283E+00    0.25       1.0  T
  56     -5.6611842 -0.939994E-02  0.237E+00    0.25       1.0  T
  57     -5.6580613  0.312295E-02  0.257E+00    0.25       1.0  T
  58     -5.6666247 -0.856347E-02  0.209E+00    0.26       1.0  T
  59     -5.6696761 -0.305133E-02  0.195E+00    0.26       1.0  T
  60     -5.6761418 -0.646573E-02  0.110E+00    0.29       1.0  T
  61     -5.6758303  0.311517E-03  0.115E+00    0.29       1.0  T
  62     -5.6746112  0.121906E-02  0.585E-01    0.33       1.0  T
  63     -5.6747741 -0.162901E-03  0.552E-01    0.32       1.0  T
  64     -5.6754336 -0.659448E-03  0.698E-01    0.31       1.0  T
  65     -5.6756488 -0.215234E-03  0.782E-01    0.30       1.0  T
  66     -5.6757740 -0.125173E-03  0.670E-01    0.31       1.0  T
  67     -5.6760076 -0.233633E-03  0.621E-01    0.31       1.0  T
  68     -5.6764135 -0.405927E-03  0.602E-01    0.30       1.0  T
  69     -5.6767636 -0.350074E-03  0.558E-01    0.31       1.0  T
  70     -5.6771284 -0.364767E-03  0.486E-01    0.31       1.0  T
  71     -5.6774264 -0.298002E-03  0.430E-01    0.31       1.0  T
  72     -5.6776470 -0.220649E-03  0.418E-01    0.30       1.0  T
  73     -5.6777241 -0.771251E-04  0.433E-01    0.30       1.0  T
  74     -5.6777472 -0.230068E-04  0.412E-01    0.30       1.0  T
  75     -5.6778367 -0.895766E-04  0.310E-01    0.30       1.0  T
  76     -5.6778961 -0.594200E-04  0.233E-01    0.30       1.0  T
  77     -5.6779431 -0.469164E-04  0.157E-01    0.30       1.0  T
  78     -5.6779636 -0.205007E-04  0.986E-02    0.30       1.0  T
  79     -5.6779649 -0.134161E-05  0.674E-02    0.30       1.0  T
  80     -5.6779620  0.290955E-05  0.541E-02    0.30       1.0  T
  81     -5.6779625 -0.514987E-06  0.481E-02    0.30       1.0  T
  82     -5.6779672 -0.469698E-05  0.370E-02    0.30       1.0  T
  83     -5.6779693 -0.207711E-05  0.225E-02    0.30       1.5  T
  84     -5.6779692  0.134157E-06  0.145E-02    0.30       2.3  T
  85     -5.6779701 -0.936421E-06  0.121E-02    0.30       2.8  T
  86     -5.6779709 -0.779232E-06  0.162E-02    0.30       2.1  T
  87     -5.6779710 -0.109969E-06  0.146E-02    0.30       2.3  T
  88     -5.6779711 -0.854187E-07  0.675E-03    0.30       4.9  T
  89     -5.6779711 -0.202598E-07  0.677E-03    0.30       4.9  T
  90     -5.6779711  0.174381E-07  0.638E-03    0.30       5.2  T
  91     -5.6779711  0.553290E-08  0.481E-03    0.30       6.9  T
  92     -5.6779710  0.175361E-07  0.439E-03    0.30       7.6  T
  93     -5.6779711 -0.362069E-07  0.189E-03    0.30      17.6  T
  94     -5.6779711 -0.352305E-08  0.175E-03    0.30      19.0  T
  95     -5.6779711 -0.709685E-08  0.838E-04    0.30      39.8  T
  96     -5.6779711 -0.251085E-09  0.732E-04    0.30      45.5  T

   *** convergence criteria satisfied after 96 iterations ***

         #    Occupation            Energy/Eh            Energy/eV
      -------------------------------------------------------------
         1        2.0000           -0.5413197             -14.7301
         2        2.0000           -0.4010910             -10.9142
         3        2.0000           -0.3257016              -8.8628
         4        2.0000           -0.2918321              -7.9412
         5        2.0000           -0.2664465              -7.2504
         6        2.0000           -0.2394105              -6.5147
         7        1.9601           -0.1951561              -5.3105
         8        1.0367           -0.1891100              -5.1459 (HOMO)
         9        0.0032           -0.1781762              -4.8484 (LUMO)
        10                         -0.1408273              -3.8321
        11                         -0.1343170              -3.6550
        12                         -0.1243287              -3.3832
        13                         -0.1159785              -3.1559
       ...                                ...                  ...
        21                          0.6817482              18.5513
      -------------------------------------------------------------
                  HL-Gap            0.0109338 Eh            0.2975 eV
             Fermi-level           -0.1878877 Eh           -5.1127 eV

 SCC (total)                   0 d,  0 h,  0 min,  0.021 sec
 SCC setup                      ...        0 min,  0.000 sec (  0.237%)
 Dispersion                     ...        0 min,  0.000 sec (  0.464%)
 classical contributions        ...        0 min,  0.000 sec (  0.368%)
 integral evaluation            ...        0 min,  0.000 sec (  0.667%)
 iterations                     ...        0 min,  0.020 sec ( 95.483%)
 molecular gradient             ...        0 min,  0.001 sec (  2.588%)
 printout                       ...        0 min,  0.000 sec (  0.130%)

         :::::::::::::::::::::::::::::::::::::::::::::::::::::
         ::                     SUMMARY                     ::
         :::::::::::::::::::::::::::::::::::::::::::::::::::::
         :: total energy              -5.608539072639 Eh    ::
         :: gradient norm              0.249917549177 Eh/a0 ::
         :: HOMO-LUMO gap              0.297524995088 eV    ::
         ::.................................................::
         :: SCC energy                -5.677971091227 Eh    ::
         :: -> isotropic ES           -0.014877204917 Eh    ::
         :: -> anisotropic ES          0.000879693696 Eh    ::
         :: -> anisotropic XC         -0.023008003067 Eh    ::
         :: -> dispersion             -0.007110811869 Eh    ::
         :: repulsion energy           0.069417389343 Eh    ::
         :: add. restraining           0.000000000000 Eh    ::
         :: total charge               0.000000000002 e     ::
         :::::::::::::::::::::::::::::::::::::::::::::::::::::

      ----------------------------------------------------------- 
     |                   =====================                   |
     |                        A N C O P T                        |
     |                   =====================                   |
     |               Approximate Normal Coordinate               |
     |                Rational Function Optimizer                |
      ----------------------------------------------------------- 

          ...................................................
          :                      SETUP                      :
          :.................................................:
          :   optimization level            normal          :
          :   max. optcycles                   200          :
          :   ANC micro-cycles                  20          :
          :   degrees of freedom                21          :
          :.................................................:
          :   RF solver                   davidson          :
          :   write xtbopt.log                true          :
          :   linear?                        false          :
          :   energy convergence         0.5000000E-05 Eh   :
          :   grad. convergence          0.1000000E-02 Eh/α :
          :   maximium RF displ.         1.0000000          :
          :   Hlow (freq-cutoff)         0.1000000E-01      :
          :   Hmax (freq-cutoff)         5.0000000          :
          :   S6 in model hess.         20.0000000          :
          ...................................................

generating ANC from model Hessian ...
Using Lindh-Hessian (1995)
 Shifting diagonal of input Hessian by    2.0549068559442683E-002
 Lowest  eigenvalues of input Hessian
    0.010000    0.018638    0.019806    0.000000    0.000000    0.000000
    0.000000    0.000000    0.000000    0.020872    0.021110    0.021512
    0.022124    0.026599    0.031314    0.034714    0.043308    0.048241
 Highest eigenvalues
    0.191619    0.207622    0.243102    0.292523    0.343246    0.380067


........................................................................
.............................. CYCLE    1 ..............................
........................................................................
   1     -5.6779711 -0.567797E+01  0.481E-04    0.30       0.0  T
   2     -5.6779710  0.480858E-07  0.305E-03    0.30      10.9  T
   3     -5.6779711 -0.304171E-07  0.206E-03    0.30      16.2  T
   4     -5.6779711 -0.105520E-07  0.135E-03    0.30      24.7  T
   5     -5.6779711 -0.697662E-08  0.332E-04    0.30     100.3  T
   6     -5.6779711 -0.442992E-09  0.130E-04    0.30     255.9  T
     SCC iter.                  ...        0 min,  0.001 sec
     gradient                   ...        0 min,  0.000 sec
 * total energy  :    -5.6085391 Eh     change       -0.2861791E-09 Eh
   gradient norm :     0.2497956 Eh/α   predicted     0.0000000E+00 (-100.00%)
   displ. norm   :     0.7803670 α      lambda       -0.1849849E+00
   maximum displ.:     0.3920855 α      in ANC's #16, #17, #1, ...

........................................................................
.............................. CYCLE    2 ..............................
........................................................................
   1     -5.7584802 -0.575848E+01  0.554E+00    0.47       0.0  T
   2     -2.9279801  0.283050E+01  0.184E+01    0.05       1.0  T
   3     -5.4490882 -0.252111E+01  0.605E+00    1.81       1.0  T
   4     -5.4404619  0.862630E-02  0.555E+00    0.36       1.0  T
   5     -5.2935500  0.146912E+00  0.667E+00    0.41       1.0  T
   6     -5.2687883  0.247616E-01  0.786E+00    0.17       1.0  T
   7     -4.6083818  0.660406E+00  0.153E+01    0.18       1.0  T
   8     -3.9198069  0.688575E+00  0.178E+01    0.14       1.0  T
   9     -5.4602327 -0.154043E+01  0.753E+00    0.20       1.0  T
  10     -5.4654168 -0.518410E-02  0.409E+00    0.52       1.0  T
  11     -5.7396991 -0.274282E+00  0.290E+00    0.56       1.0  T
  12     -5.7551450 -0.154459E-01  0.265E+00    0.44       1.0  T
  13     -5.7530619  0.208317E-02  0.257E+00    0.53       1.0  T
  14     -5.7555737 -0.251182E-02  0.229E+00    0.55       1.0  T
  15     -5.7700955 -0.145218E-01  0.166E+00    0.44       1.0  T
  16     -5.7721368 -0.204126E-02  0.146E+00    0.43       1.0  T
  17     -5.7745162 -0.237942E-02  0.119E+00    0.42       1.0  T
  18     -5.7751719 -0.655730E-03  0.111E+00    0.41       1.0  T
  19     -5.7782865 -0.311454E-02  0.849E-01    0.38       1.0  T
  20     -5.7798146 -0.152814E-02  0.724E-01    0.37       1.0  T
  21     -5.7803914 -0.576808E-03  0.738E-01    0.36       1.0  T
  22     -5.7794313  0.960081E-03  0.813E-01    0.37       1.0  T
  23     -5.7793740  0.572953E-04  0.836E-01    0.37       1.0  T
  24     -5.7796101 -0.236078E-03  0.813E-01    0.37       1.0  T
  25     -5.7802376 -0.627520E-03  0.749E-01    0.37       1.0  T
  26     -5.7807860 -0.548403E-03  0.643E-01    0.36       1.0  T
  27     -5.7820133 -0.122727E-02  0.349E-01    0.35       1.0  T
  28     -5.7822027 -0.189375E-03  0.261E-01    0.35       1.0  T
  29     -5.7824002 -0.197505E-03  0.925E-02    0.34       1.0  T
  30     -5.7824274 -0.272340E-04  0.143E-02    0.34       2.3  T
  31     -5.7824232  0.425526E-05  0.322E-02    0.34       1.0  T
  32     -5.7824261 -0.293952E-05  0.201E-02    0.34       1.7  T
  33     -5.7824255  0.594101E-06  0.245E-02    0.34       1.4  T
  34     -5.7824265 -0.101013E-05  0.171E-02    0.34       2.0  T
  35     -5.7824274 -0.891762E-06  0.475E-03    0.34       7.0  T
  36     -5.7824274 -0.744914E-08  0.296E-03    0.34      11.3  T
  37     -5.7824274  0.362028E-07  0.323E-03    0.34      10.3  T
  38     -5.7824273  0.379360E-07  0.385E-03    0.34       8.7  T
  39     -5.7824274 -0.419828E-07  0.311E-03    0.34      10.7  T
  40     -5.7824274 -0.182948E-08  0.298E-03    0.34      11.2  T
  41     -5.7824274 -0.341011E-07  0.154E-03    0.34      21.6  T
  42     -5.7824274 -0.650924E-08  0.837E-04    0.34      39.8  T
  43     -5.7824274 -0.276003E-08  0.147E-04    0.34     226.9  T
     SCC iter.                  ...        0 min,  0.007 sec
     gradient                   ...        0 min,  0.001 sec
 * total energy  :    -5.7410009 Eh     change       -0.1324619E+00 Eh
   gradient norm :     0.1754783 Eh/α   predicted    -0.1488178E+00 (  12.35%)
   displ. norm   :     0.8106455 α      lambda       -0.1390480E+00
   maximum displ.:     0.6163439 α      in ANC's #17, #21, #14, ...

........................................................................
.............................. CYCLE    3 ..............................
........................................................................
   1     -5.9118876 -0.591189E+01  0.362E+00    0.53       0.0  T
   2     -5.6956379  0.216250E+00  0.539E+00    1.20       1.0  T
   3     -5.6438385  0.517994E-01  0.815E+00    0.54       1.0  T
   4     -5.7082594 -0.644209E-01  0.718E+00    0.52       1.0  T
   5     -5.2679018  0.440358E+00  0.913E+00    0.95       1.0  T
   6     -5.7776980 -0.509796E+00  0.421E+00    0.59       1.0  T
   7     -5.8375308 -0.598328E-01  0.289E+00    0.65       1.0  T
   8     -5.8983751 -0.608442E-01  0.236E+00    0.70       1.0  T
   9     -5.9204914 -0.221164E-01  0.163E+00    0.59       1.0  T
  10     -5.9288161 -0.832471E-02  0.707E-01    0.51       1.0  T
  11     -5.9273087  0.150746E-02  0.789E-01    0.50       1.0  T
  12     -5.9308526 -0.354395E-02  0.307E-01    0.53       1.0  T
  13     -5.9308398  0.127983E-04  0.269E-01    0.53       1.0  T
  14     -5.9308894 -0.495861E-04  0.204E-01    0.54       1.0  T
  15     -5.9308996 -0.102203E-04  0.152E-01    0.54       1.0  T
  16     -5.9308654  0.342574E-04  0.735E-02    0.54       1.0  T
  17     -5.9309024 -0.369771E-04  0.633E-02    0.54       1.0  T
  18     -5.9309126 -0.102578E-04  0.426E-02    0.54       1.0  T
  19     -5.9309178 -0.515664E-05  0.228E-02    0.54       1.5  T
  20     -5.9309184 -0.585690E-06  0.161E-02    0.54       2.1  T
  21     -5.9309189 -0.496868E-06  0.678E-03    0.54       4.9  T
  22     -5.9309190 -0.120297E-06  0.247E-03    0.54      13.5  T
  23     -5.9309190 -0.737597E-08  0.183E-03    0.54      18.2  T
  24     -5.9309190 -0.567752E-08  0.806E-04    0.54      41.4  T
  25     -5.9309190 -0.161509E-08  0.163E-04    0.54     204.7  T
     SCC iter.                  ...        0 min,  0.004 sec
     gradient                   ...        0 min,  0.000 sec
 * total energy  :    -5.8395201 Eh     change       -0.9851918E-01 Eh
   gradient norm :     0.0936146 Eh/α   predicted    -0.1152114E+00 (  16.94%)
   displ. norm   :     0.6414260 α      lambda       -0.4441839E-01
   maximum displ.:     0.4127649 α      in ANC's #2, #1, #21, ...

........................................................................
.............................. CYCLE    4 ..............................
........................................................................
   1     -5.9653981 -0.596540E+01  0.283E+00    0.44       0.0  T
   2     -5.7481864  0.217212E+00  0.542E+00    1.40       1.0  T
   3     -5.7106377  0.375487E-01  0.702E+00    0.69       1.0  T
   4     -5.7779440 -0.673063E-01  0.624E+00    0.61       1.0  T
   5     -5.7337066  0.442374E-01  0.633E+00    0.66       1.0  T
   6     -5.7939665 -0.602599E-01  0.536E+00    0.65       1.0  T
   7     -5.9309369 -0.136970E+00  0.213E+00    0.36       1.0  T
   8     -5.9606396 -0.297028E-01  0.255E+00    0.44       1.0  T
   9     -5.9690128 -0.837312E-02  0.179E+00    0.43       1.0  T
  10     -5.9677242  0.128856E-02  0.198E+00    0.43       1.0  T
  11     -5.9749332 -0.720896E-02  0.890E-01    0.44       1.0  T
  12     -5.9763604 -0.142725E-02  0.723E-01    0.45       1.0  T
  13     -5.9772580 -0.897546E-03  0.308E-01    0.45       1.0  T
  14     -5.9775455 -0.287542E-03  0.210E-01    0.45       1.0  T
  15     -5.9775769 -0.313534E-04  0.150E-01    0.45       1.0  T
  16     -5.9775837 -0.680421E-05  0.123E-01    0.45       1.0  T
  17     -5.9776005 -0.168135E-04  0.899E-02    0.45       1.0  T
  18     -5.9775969  0.354722E-05  0.817E-02    0.45       1.0  T
  19     -5.9776089 -0.119660E-04  0.465E-02    0.45       1.0  T
  20     -5.9776120 -0.313702E-05  0.269E-02    0.45       1.2  T
  21     -5.9776138 -0.172638E-05  0.818E-03    0.45       4.1  T
  22     -5.9776140 -0.196147E-06  0.247E-03    0.45      13.5  T
  23     -5.9776140 -0.585906E-08  0.212E-03    0.45      15.7  T
  24     -5.9776140 -0.876335E-08  0.844E-04    0.45      39.5  T
  25     -5.9776140 -0.126790E-08  0.231E-04    0.45     144.4  T
     SCC iter.                  ...        0 min,  0.004 sec
     gradient                   ...        0 min,  0.001 sec
 * total energy  :    -5.8743615 Eh     change       -0.3484136E-01 Eh
   gradient norm :     0.0799751 Eh/α   predicted    -0.3134666E-01 ( -10.03%)
   displ. norm   :     0.7881219 α      lambda       -0.4877977E-01
   maximum displ.:     0.5884669 α      in ANC's #2, #21, #10, ...

........................................................................
.............................. CYCLE    5 ..............................
........................................................................
   1     -5.9651350 -0.596513E+01  0.403E+00    0.43       0.0  T
   2      2.6832808  0.864842E+01  0.164E+01    0.89       1.0  T
   3     -5.5632477 -0.824653E+01  0.720E+00    2.27       1.0  T
   4     -5.5584317  0.481601E-02  0.712E+00    2.23       1.0  T
   5     -5.4533527  0.105079E+00  0.710E+00    2.43       1.0  T
   6     -5.4976752 -0.443225E-01  0.599E+00    1.21       1.0  T
   7     -5.6339110 -0.136236E+00  0.467E+00    1.49       1.0  T
   8     -5.7142413 -0.803303E-01  0.352E+00    1.67       1.0  T
   9     -5.7445197 -0.302784E-01  0.332E+00    1.46       1.0  T
  10     -5.7470685 -0.254879E-02  0.329E+00    1.45       1.0  T
  11     -5.8477612 -0.100693E+00  0.248E+00    0.97       1.0  T
  12     -5.8653476 -0.175864E-01  0.231E+00    0.90       1.0  T
  13     -5.9337550 -0.684074E-01  0.157E+00    0.64       1.0  T
  14     -5.9602723 -0.265173E-01  0.127E+00    0.55       1.0  T
  15     -5.9607368 -0.464544E-03  0.126E+00    0.55       1.0  T
  16     -5.9677231 -0.698625E-02  0.116E+00    0.52       1.0  T
  17     -6.0001710 -0.324479E-01  0.714E-01    0.40       1.0  T
  18     -6.0010702 -0.899221E-03  0.938E-01    0.38       1.0  T
  19     -6.0004534  0.616819E-03  0.439E-01    0.41       1.0  T
  20     -5.9984674  0.198601E-02  0.131E+00    0.36       1.0  T
  21     -5.9998087 -0.134128E-02  0.110E+00    0.37       1.0  T
  22     -6.0012570 -0.144834E-02  0.446E-01    0.39       1.0  T
  23     -6.0006013  0.655729E-03  0.185E-01    0.41       1.0  T
  24     -6.0000903  0.511003E-03  0.373E-01    0.42       1.0  T
  25     -6.0002523 -0.162030E-03  0.402E-01    0.41       1.0  T
  26     -6.0009601 -0.707767E-03  0.269E-01    0.41       1.0  T
  27     -6.0011974 -0.237299E-03  0.168E-01    0.40       1.0  T
  28     -6.0013061 -0.108783E-03  0.855E-02    0.40       1.0  T
  29     -6.0013230 -0.168440E-04  0.355E-02    0.40       1.0  T
  30     -6.0013221  0.867418E-06  0.175E-02    0.40       1.9  T
  31     -6.0013226 -0.495785E-06  0.841E-03    0.40       4.0  T
  32     -6.0013231 -0.516652E-06  0.736E-03    0.40       4.5  T
  33     -6.0013233 -0.171926E-06  0.392E-03    0.40       8.5  T
  34     -6.0013234 -0.822619E-07  0.201E-03    0.40      16.6  T
  35     -6.0013234  0.111154E-07  0.977E-04    0.40      34.1  T
  36     -6.0013234 -0.769653E-08  0.678E-04    0.40      49.2  T
     SCC iter.                  ...        0 min,  0.005 sec
     gradient                   ...        0 min,  0.000 sec
 * total energy  :    -5.8975532 Eh     change       -0.2319174E-01 Eh
   gradient norm :     0.0960253 Eh/α   predicted    -0.3953932E-01 (  70.49%)
   displ. norm   :     0.5905370 α      lambda       -0.3073456E-01
   maximum displ.:     0.3957174 α      in ANC's #2, #6, #9, ...

........................................................................
.............................. CYCLE    6 ..............................
........................................................................
   1     -6.0133352 -0.601334E+01  0.149E+00    0.40       0.0  T
   2     -5.8413977  0.171938E+00  0.532E+00    1.37       1.0  T
   3     -5.9851583 -0.143761E+00  0.267E+00    0.66       1.0  T
   4     -6.0043797 -0.192214E-01  0.179E+00    0.56       1.0  T
   5     -6.0032338  0.114594E-02  0.135E+00    0.45       1.0  T
   6     -6.0131328 -0.989900E-02  0.833E-01    0.45       1.0  T
   7     -6.0173216 -0.418876E-02  0.644E-01    0.42       1.0  T
   8     -6.0201020 -0.278047E-02  0.287E-01    0.43       1.0  T
   9     -6.0193335  0.768515E-03  0.497E-01    0.42       1.0  T
  10     -6.0203038 -0.970296E-03  0.304E-01    0.42       1.0  T
  11     -6.0206991 -0.395259E-03  0.145E-01    0.43       1.0  T
  12     -6.0206010  0.980624E-04  0.207E-01    0.44       1.0  T
  13     -6.0206065 -0.551292E-05  0.197E-01    0.44       1.0  T
  14     -6.0207734 -0.166842E-03  0.758E-03    0.44       4.4  T
  15     -6.0207735 -0.109479E-06  0.659E-03    0.44       5.1  T
  16     -6.0207733  0.209751E-06  0.104E-02    0.44       3.2  T
  17     -6.0207736 -0.312863E-06  0.399E-03    0.44       8.4  T
  18     -6.0207736 -0.308026E-07  0.287E-03    0.44      11.6  T
  19     -6.0207736 -0.167506E-07  0.184E-03    0.44      18.1  T
  20     -6.0207736 -0.123620E-07  0.605E-04    0.44      55.1  T
  21     -6.0207736 -0.129060E-08  0.814E-05    0.44     409.5  T
     SCC iter.                  ...        0 min,  0.003 sec
     gradient                   ...        0 min,  0.000 sec
 * total energy  :    -5.9107154 Eh     change       -0.1316218E-01 Eh
   gradient norm :     0.0592297 Eh/α   predicted    -0.2072639E-01 (  57.47%)
   displ. norm   :     0.5826320 α      lambda       -0.2603581E-01
   maximum displ.:     0.2709368 α      in ANC's #12, #10, #1, ...

........................................................................
.............................. CYCLE    7 ..............................
........................................................................
   1     -6.0379912 -0.603799E+01  0.231E+00    0.62       0.0  T
   2     -5.5805811  0.457410E+00  0.816E+00    0.69       1.0  T
   3     -6.0270942 -0.446513E+00  0.207E+00    0.63       1.0  T
   4     -5.9577730  0.693212E-01  0.389E+00    0.50       1.0  T
   5     -5.9382283  0.195447E-01  0.397E+00    0.46       1.0  T
   6     -6.0062032 -0.679749E-01  0.284E+00    0.48       1.0  T
   7     -6.0340014 -0.277982E-01  0.129E+00    0.50       1.0  T
   8     -6.0467930 -0.127916E-01  0.375E-01    0.55       1.0  T
   9     -6.0475656 -0.772562E-03  0.324E-01    0.56       1.0  T
  10     -6.0476668 -0.101213E-03  0.161E-01    0.55       1.0  T
  11     -6.0478020 -0.135224E-03  0.318E-01    0.54       1.0  T
  12     -6.0479849 -0.182922E-03  0.408E-02    0.55       1.0  T
  13     -6.0479888 -0.390429E-05  0.278E-02    0.55       1.2  T
  14     -6.0479920 -0.313538E-05  0.155E-02    0.55       2.1  T
  15     -6.0479931 -0.112064E-05  0.912E-03    0.55       3.7  T
  16     -6.0479936 -0.476649E-06  0.310E-03    0.55      10.7  T
  17     -6.0479936 -0.337650E-07  0.475E-03    0.55       7.0  T
  18     -6.0479936 -0.524245E-07  0.195E-03    0.55      17.1  T
  19     -6.0479937 -0.145244E-07  0.393E-04    0.55      84.9  T
  20     -6.0479937 -0.417363E-09  0.212E-04    0.55     157.1  T
     SCC iter.                  ...        0 min,  0.003 sec
     gradient                   ...        0 min,  0.000 sec
 * total energy  :    -5.9159591 Eh     change       -0.5243698E-02 Eh
   gradient norm :     0.1121954 Eh/α   predicted    -0.1743696E-01 ( 232.53%)
   displ. norm   :     0.3291620 α      lambda       -0.2052417E-01
   maximum displ.:     0.1482943 α      in ANC's #7, #2, #10, ...

........................................................................
.............................. CYCLE    8 ..............................
........................................................................
   1     -6.0233805 -0.602338E+01  0.174E+00    0.56       0.0  T
   2     -5.3437207  0.679660E+00  0.979E+00    0.57       1.0  T
   3     -5.9819194 -0.638199E+00  0.278E+00    0.80       1.0  T
   4     -5.9928838 -0.109644E-01  0.252E+00    0.61       1.0  T
   5     -5.9982301 -0.534630E-02  0.222E+00    0.70       1.0  T
   6     -5.9975787  0.651381E-03  0.155E+00    0.57       1.0  T
   7     -6.0306814 -0.331027E-01  0.706E-01    0.47       1.0  T
   8     -6.0307506 -0.691594E-04  0.686E-01    0.47       1.0  T
   9     -6.0304048  0.345810E-03  0.467E-01    0.52       1.0  T
  10     -6.0285540  0.185079E-02  0.725E-01    0.54       1.0  T
  11     -6.0311081 -0.255411E-02  0.149E-01    0.50       1.0  T
  12     -6.0308326  0.275529E-03  0.211E-01    0.52       1.0  T
  13     -6.0311207 -0.288100E-03  0.591E-02    0.51       1.0  T
  14     -6.0311223 -0.164774E-05  0.352E-02    0.51       1.0  T
  15     -6.0311328 -0.104611E-04  0.121E-02    0.51       2.8  T
  16     -6.0311332 -0.422495E-06  0.902E-03    0.51       3.7  T
  17     -6.0311334 -0.185347E-06  0.358E-03    0.51       9.3  T
  18     -6.0311334 -0.433374E-07  0.477E-04    0.51      69.8  T
  19     -6.0311334  0.214201E-09  0.810E-04    0.51      41.2  T
     SCC iter.                  ...        0 min,  0.003 sec
     gradient                   ...        0 min,  0.000 sec
 * total energy  :    -5.9263242 Eh     change       -0.1036507E-01 Eh
   gradient norm :     0.0336285 Eh/α   predicted    -0.1137395E-01 (   9.73%)
   displ. norm   :     0.4639659 α      lambda       -0.1141721E-01
   maximum displ.:     0.2080680 α      in ANC's #7, #21, #11, ...

........................................................................
.............................. CYCLE    9 ..............................
........................................................................
   1     -6.0600622 -0.606006E+01  0.241E+00    0.44       0.0  T
   2     -5.8169661  0.243096E+00  0.672E+00    1.73       1.0  T
   3     -6.0756496 -0.258684E+00  0.903E-01    0.48       1.0  T
   4     -6.0348786  0.407710E-01  0.245E+00    0.44       1.0  T
   5     -6.0105972  0.242814E-01  0.313E+00    0.41       1.0  T
   6     -6.0741506 -0.635534E-01  0.695E-01    0.45       1.0  T
   7     -6.0716523  0.249828E-02  0.815E-01    0.43       1.0  T
   8     -6.0758456 -0.419331E-02  0.328E-01    0.45       1.0  T
   9     -6.0760579 -0.212264E-03  0.356E-01    0.48       1.0  T
  10     -6.0760604 -0.255947E-05  0.344E-01    0.48       1.0  T
  11     -6.0763569 -0.296504E-03  0.203E-01    0.48       1.0  T
  12     -6.0764110 -0.540874E-04  0.179E-01    0.48       1.0  T
  13     -6.0765412 -0.130169E-03  0.498E-02    0.47       1.0  T
  14     -6.0765468 -0.561899E-05  0.325E-02    0.47       1.0  T
  15     -6.0765517 -0.485220E-05  0.359E-03    0.47       9.3  T
  16     -6.0765517 -0.768841E-08  0.253E-03    0.47      13.2  T
  17     -6.0765516  0.589099E-07  0.447E-03    0.47       7.5  T
  18     -6.0765517 -0.659156E-07  0.205E-03    0.47      16.3  T
  19     -6.0765517 -0.158340E-07  0.672E-04    0.47      49.6  T
  20     -6.0765517 -0.175105E-08  0.752E-05    0.47     443.5  T
     SCC iter.                  ...        0 min,  0.002 sec
     gradient                   ...        0 min,  0.000 sec
 * total energy  :    -5.9248396 Eh     change        0.1484534E-02 Eh
   gradient norm :     0.0991412 Eh/α   predicted    -0.6937464E-02 (-567.32%)
   displ. norm   :     0.3670905 α      lambda       -0.2004354E-01
   maximum displ.:     0.1701248 α      in ANC's #3, #9, #6, ...

........................................................................
.............................. CYCLE   10 ..............................
........................................................................
   1     -6.0443968 -0.604440E+01  0.108E+00    0.52       0.0  T
   2     -5.7954765  0.248920E+00  0.643E+00    0.46       1.0  T
   3     -6.0362520 -0.240775E+00  0.143E+00    0.58       1.0  T
   4     -6.0395637 -0.331168E-02  0.973E-01    0.50       1.0  T
   5     -6.0437767 -0.421303E-02  0.430E-01    0.49       1.0  T
   6     -6.0455116 -0.173493E-02  0.314E-01    0.51       1.0  T
   7     -6.0466449 -0.113323E-02  0.204E-01    0.49       1.0  T
   8     -6.0463807  0.264132E-03  0.252E-01    0.50       1.0  T
   9     -6.0461536  0.227074E-03  0.348E-01    0.51       1.0  T
  10     -6.0466669 -0.513214E-03  0.101E-01    0.50       1.0  T
  11     -6.0466696 -0.274855E-05  0.890E-02    0.50       1.0  T
  12     -6.0467000 -0.304018E-04  0.418E-02    0.50       1.0  T
  13     -6.0467019 -0.192244E-05  0.270E-02    0.50       1.2  T
  14     -6.0467034 -0.151489E-05  0.149E-02    0.50       2.2  T
  15     -6.0467040 -0.566742E-06  0.626E-03    0.50       5.3  T
  16     -6.0467041 -0.106706E-06  0.281E-03    0.50      11.8  T
  17     -6.0467041 -0.132094E-07  0.865E-04    0.50      38.5  T
  18     -6.0467041 -0.728111E-09  0.863E-04    0.50      38.6  T
     SCC iter.                  ...        0 min,  0.002 sec
     gradient                   ...        0 min,  0.000 sec
 * total energy  :    -5.9341836 Eh     change       -0.9343947E-02 Eh
   gradient norm :     0.0451127 Eh/α   predicted    -0.1137226E-01 (  21.71%)
   displ. norm   :     0.4814717 α      lambda       -0.1182679E-01
   maximum displ.:     0.2194843 α      in ANC's #12, #10, #2, ...

........................................................................
.............................. CYCLE   11 ..............................
........................................................................
   1     -6.0330375 -0.603304E+01  0.222E+00    0.74       0.0  T
   2     -4.6636544  0.136938E+01  0.113E+01    0.39       1.0  T
   3     -5.9126689 -0.124901E+01  0.478E+00    1.28       1.0  T
   4     -5.9243599 -0.116910E-01  0.463E+00    1.31       1.0  T
   5     -5.9035500  0.208098E-01  0.476E+00    1.32       1.0  T
   6     -5.8672227  0.363273E-01  0.416E+00    1.02       1.0  T
   7     -5.9731588 -0.105936E+00  0.240E+00    0.98       1.0  T
   8     -6.0181287 -0.449699E-01  0.156E+00    0.77       1.0  T
   9     -6.0227859 -0.465718E-02  0.145E+00    0.75       1.0  T
  10     -6.0345894 -0.118035E-01  0.107E+00    0.69       1.0  T
  11     -6.0462800 -0.116906E-01  0.762E-01    0.58       1.0  T
  12     -6.0466489 -0.368934E-03  0.528E-01    0.60       1.0  T
  13     -6.0472976 -0.648621E-03  0.293E-01    0.63       1.0  T
  14     -6.0472043  0.932202E-04  0.312E-01    0.63       1.0  T
  15     -6.0476176 -0.413212E-03  0.229E-01    0.59       1.0  T
  16     -6.0477026 -0.850546E-04  0.155E-01    0.61       1.0  T
  17     -6.0477442 -0.415472E-04  0.131E-01    0.61       1.0  T
  18     -6.0477505 -0.631274E-05  0.105E-01    0.61       1.0  T
  19     -6.0477539 -0.340526E-05  0.415E-02    0.61       1.0  T
  20     -6.0477546 -0.721525E-06  0.194E-02    0.61       1.7  T
  21     -6.0477547 -0.740126E-07  0.669E-03    0.61       5.0  T
  22     -6.0477546  0.318297E-07  0.202E-03    0.61      16.5  T
  23     -6.0477547 -0.605096E-07  0.926E-04    0.61      36.0  T
  24     -6.0477547 -0.427593E-08  0.445E-04    0.61      74.9  T
     SCC iter.                  ...        0 min,  0.004 sec
     gradient                   ...        0 min,  0.001 sec
 * total energy  :    -5.9362661 Eh     change       -0.2082494E-02 Eh
   gradient norm :     0.0662108 Eh/α   predicted    -0.7284204E-02 ( 249.78%)
   displ. norm   :     0.3808658 α      lambda       -0.1551830E-01
   maximum displ.:     0.1723620 α      in ANC's #15, #7, #1, ...

........................................................................
.............................. CYCLE   12 ..............................
........................................................................
   1     -6.0565699 -0.605657E+01  0.147E+00    0.61       0.0  T
   2     -6.0164152  0.401547E-01  0.268E+00    0.74       1.0  T
   3     -6.0462776 -0.298624E-01  0.170E+00    0.54       1.0  T
   4     -5.9606203  0.856573E-01  0.277E+00    0.92       1.0  T
   5     -6.0490882 -0.884679E-01  0.802E-01    0.61       1.0  T
   6     -6.0548046 -0.571642E-02  0.631E-01    0.70       1.0  T
   7     -6.0586780 -0.387335E-02  0.273E-01    0.62       1.0  T
   8     -6.0573074  0.137059E-02  0.513E-01    0.68       1.0  T
   9     -6.0589320 -0.162460E-02  0.145E-01    0.66       1.0  T
  10     -6.0590083 -0.763175E-04  0.807E-02    0.65       1.0  T
  11     -6.0590219 -0.136411E-04  0.427E-02    0.65       1.0  T
  12     -6.0590373 -0.154027E-04  0.531E-03    0.65       6.3  T
  13     -6.0590373  0.296732E-07  0.582E-03    0.65       5.7  T
  14     -6.0590373  0.308879E-07  0.536E-03    0.65       6.2  T
  15     -6.0590374 -0.170382E-06  0.271E-03    0.65      12.3  T
  16     -6.0590375 -0.405925E-07  0.498E-04    0.65      67.0  T
  17     -6.0590375 -0.138995E-08  0.781E-05    0.65     426.8  T
     SCC iter.                  ...        0 min,  0.002 sec
     gradient                   ...        0 min,  0.001 sec
 * total energy  :    -5.9499490 Eh     change       -0.1368293E-01 Eh
   gradient norm :     0.0541271 Eh/α   predicted    -0.8884685E-02 ( -35.07%)
   displ. norm   :     0.8492895 α      lambda       -0.4008008E-01
   maximum displ.:     0.4984542 α      in ANC's #15, #11, #14, ...

........................................................................
.............................. CYCLE   13 ..............................
........................................................................
   1     -6.0736272 -0.607363E+01  0.430E+00    1.06       0.0  T
   2     -5.7353864  0.338241E+00  0.546E+00    0.56       1.0  T
   3     -5.8477477 -0.112361E+00  0.487E+00    1.53       1.0  T
   4     -5.6244092  0.223339E+00  0.584E+00    0.59       1.0  T
   5     -5.8641873 -0.239778E+00  0.501E+00    1.67       1.0  T
   6     -5.9231716 -0.589843E-01  0.354E+00    1.68       1.0  T
   7     -6.0684218 -0.145250E+00  0.205E+00    1.24       1.0  T
   8     -6.1018489 -0.334271E-01  0.795E-01    1.11       1.0  T
   9     -6.1123317 -0.104828E-01  0.513E-01    1.02       1.0  T
  10     -6.1124783 -0.146601E-03  0.445E-01    1.02       1.0  T
  11     -6.1128550 -0.376683E-03  0.718E-01    1.04       1.0  T
  12     -6.1129115 -0.565115E-04  0.244E-01    0.98       1.0  T
  13     -6.1134288 -0.517375E-03  0.154E-01    0.99       1.0  T
  14     -6.1135517 -0.122874E-03  0.103E-01    0.99       1.0  T
  15     -6.1136741 -0.122400E-03  0.678E-02    1.00       1.0  T
  16     -6.1136871 -0.129925E-04  0.205E-02    1.00       1.6  T
  17     -6.1136941 -0.697345E-05  0.651E-03    1.00       5.1  T
  18     -6.1136938  0.264612E-06  0.678E-03    1.00       4.9  T
  19     -6.1136942 -0.380377E-06  0.244E-03    1.00      13.6  T
  20     -6.1136942 -0.174438E-07  0.140E-03    1.00      23.8  T
  21     -6.1136942 -0.130867E-07  0.161E-04    1.00     206.6  T
  22     -6.1136942 -0.128265E-09  0.545E-05    1.00     611.4  T
     SCC iter.                  ...        0 min,  0.003 sec
     gradient                   ...        0 min,  0.000 sec
 * total energy  :    -5.9709841 Eh     change       -0.2103511E-01 Eh
   gradient norm :     0.1477366 Eh/α   predicted    -0.3449478E-01 (  63.99%)
   displ. norm   :     0.6527789 α      lambda       -0.4483013E-01
   maximum displ.:     0.3626428 α      in ANC's #15, #6, #20, ...

........................................................................
.............................. CYCLE   14 ..............................
........................................................................
   1     -6.1014724 -0.610147E+01  0.260E+00    1.13       0.0  T
   2     -6.0592304  0.422420E-01  0.231E+00    1.15       1.0  T
   3     -5.9210380  0.138192E+00  0.469E+00    0.82       1.0  T
   4     -5.9319702 -0.109322E-01  0.439E+00    1.69       1.0  T
   5     -6.0814336 -0.149463E+00  0.161E+00    1.23       1.0  T
   6     -6.0631178  0.183158E-01  0.155E+00    1.34       1.0  T
   7     -6.1045748 -0.414569E-01  0.588E-01    1.08       1.0  T
   8     -6.1056584 -0.108361E-02  0.378E-01    1.11       1.0  T
   9     -6.1061704 -0.512023E-03  0.147E-01    1.12       1.0  T
  10     -6.1063868 -0.216390E-03  0.495E-02    1.11       1.0  T
  11     -6.1063811  0.563618E-05  0.426E-02    1.11       1.0  T
  12     -6.1063891 -0.796104E-05  0.263E-02    1.12       1.3  T
  13     -6.1063910 -0.192872E-05  0.187E-02    1.12       1.8  T
  14     -6.1063933 -0.231130E-05  0.417E-03    1.11       8.0  T
  15     -6.1063935 -0.198122E-06  0.148E-03    1.12      22.5  T
  16     -6.1063936 -0.130668E-07  0.385E-04    1.12      86.7  T
  17     -6.1063936  0.512864E-09  0.241E-04    1.12     138.2  T
     SCC iter.                  ...        0 min,  0.002 sec
     gradient                   ...        0 min,  0.000 sec
 * total energy  :    -5.9900658 Eh     change       -0.1908164E-01 Eh
   gradient norm :     0.0635432 Eh/α   predicted    -0.3196658E-01 (  67.53%)
   displ. norm   :     0.3709712 α      lambda       -0.1012755E-01
   maximum displ.:     0.2516818 α      in ANC's #7, #1, #10, ...

........................................................................
.............................. CYCLE   15 ..............................
........................................................................
   1     -6.1175409 -0.611754E+01  0.137E+00    1.31       0.0  T
   2     -6.0829135  0.346274E-01  0.194E+00    1.05       1.0  T
   3     -6.0862743 -0.336071E-02  0.193E+00    1.53       1.0  T
   4     -6.0964413 -0.101670E-01  0.154E+00    1.31       1.0  T
   5     -6.1111701 -0.147289E-01  0.916E-01    1.34       1.0  T
   6     -6.1143830 -0.321282E-02  0.566E-01    1.33       1.0  T
   7     -6.1189337 -0.455075E-02  0.155E-01    1.25       1.0  T
   8     -6.1181942  0.739544E-03  0.304E-01    1.22       1.0  T
   9     -6.1189173 -0.723169E-03  0.661E-02    1.26       1.0  T
  10     -6.1189275 -0.101504E-04  0.695E-02    1.26       1.0  T
  11     -6.1189648 -0.372840E-04  0.152E-02    1.25       2.2  T
  12     -6.1189656 -0.848518E-06  0.886E-03    1.25       3.8  T
  13     -6.1189661 -0.431622E-06  0.110E-03    1.25      30.2  T
  14     -6.1189660  0.321325E-07  0.230E-03    1.25      14.5  T
  15     -6.1189661 -0.380467E-07  0.240E-04    1.25     138.9  T
  16     -6.1189661  0.144206E-09  0.196E-04    1.25     170.2  T
     SCC iter.                  ...        0 min,  0.002 sec
     gradient                   ...        0 min,  0.001 sec
 * total energy  :    -5.9941314 Eh     change       -0.4065692E-02 Eh
   gradient norm :     0.0306682 Eh/α   predicted    -0.5760652E-02 (  41.69%)
   displ. norm   :     0.4710806 α      lambda       -0.7833106E-02
   maximum displ.:     0.2301526 α      in ANC's #15, #21, #17, ...

........................................................................
.............................. CYCLE   16 ..............................
........................................................................
   1     -6.1047296 -0.610473E+01  0.154E+00    1.25       0.0  T
   2     -6.0258760  0.788536E-01  0.232E+00    0.99       1.0  T
   3     -6.0330789 -0.720286E-02  0.283E+00    1.60       1.0  T
   4     -6.0263902  0.668869E-02  0.235E+00    1.44       1.0  T
   5     -6.0740897 -0.476996E-01  0.184E+00    1.47       1.0  T
   6     -6.0989498 -0.248601E-01  0.823E-01    1.22       1.0  T
   7     -6.1062561 -0.730626E-02  0.276E-01    1.22       1.0  T
   8     -6.1069531 -0.697025E-03  0.185E-01    1.20       1.0  T
   9     -6.1068246  0.128464E-03  0.149E-01    1.21       1.0  T
  10     -6.1068266 -0.194566E-05  0.137E-01    1.22       1.0  T
  11     -6.1069579 -0.131301E-03  0.988E-02    1.22       1.0  T
  12     -6.1070254 -0.675472E-04  0.336E-02    1.21       1.0  T
  13     -6.1070316 -0.613004E-05  0.141E-02    1.21       2.4  T
  14     -6.1070328 -0.121293E-05  0.300E-03    1.21      11.1  T
  15     -6.1070328  0.647324E-08  0.218E-03    1.21      15.3  T
  16     -6.1070328 -0.405762E-07  0.415E-04    1.21      80.3  T
  17     -6.1070328 -0.118099E-08  0.342E-04    1.21      97.3  T
     SCC iter.                  ...        0 min,  0.002 sec
     gradient                   ...        0 min,  0.000 sec
 * total energy  :    -5.9968451 Eh     change       -0.2713607E-02 Eh
   gradient norm :     0.0365866 Eh/α   predicted    -0.4785703E-02 (  76.36%)
   displ. norm   :     0.4772106 α      lambda       -0.8054824E-02
   maximum displ.:     0.2353201 α      in ANC's #1, #3, #7, ...

........................................................................
.............................. CYCLE   17 ..............................
........................................................................
   1     -6.1277231 -0.612772E+01  0.146E+00    1.31       0.0  T
   2     -6.1221533  0.556979E-02  0.105E+00    1.29       1.0  T
   3     -6.0082971  0.113856E+00  0.312E+00    1.41       1.0  T
   4     -6.1135004 -0.105203E+00  0.104E+00    1.29       1.0  T
   5     -6.1154657 -0.196523E-02  0.129E+00    1.39       1.0  T
   6     -6.1239975 -0.853187E-02  0.846E-01    1.33       1.0  T
   7     -6.1239085  0.890271E-04  0.872E-01    1.33       1.0  T
   8     -6.1273191 -0.341058E-02  0.285E-01    1.26       1.0  T
   9     -6.1281057 -0.786625E-03  0.588E-02    1.27       1.0  T
  10     -6.1279842  0.121531E-03  0.941E-02    1.27       1.0  T
  11     -6.1281027 -0.118508E-03  0.182E-02    1.27       1.8  T
  12     -6.1281051 -0.236484E-05  0.129E-02    1.27       2.6  T
  13     -6.1281061 -0.990787E-06  0.681E-03    1.27       4.9  T
  14     -6.1281062 -0.165085E-06  0.527E-03    1.27       6.3  T
  15     -6.1281064 -0.181531E-06  0.213E-03    1.27      15.7  T
  16     -6.1281064 -0.294737E-07  0.654E-04    1.27      51.0  T
  17     -6.1281064 -0.244091E-08  0.183E-04    1.27     181.9  T
     SCC iter.                  ...        0 min,  0.003 sec
     gradient                   ...        0 min,  0.000 sec
 * total energy  :    -5.9925194 Eh     change        0.4325677E-02 Eh
   gradient norm :     0.0908885 Eh/α   predicted    -0.4944574E-02 (-214.31%)
   displ. norm   :     0.2422895 α      lambda       -0.1467529E-01
   maximum displ.:     0.1208072 α      in ANC's #8, #2, #5, ...

........................................................................
.............................. CYCLE   18 ..............................
........................................................................
   1     -6.1389750 -0.613898E+01  0.888E-01    1.14       0.0  T
   2     -6.1235028  0.154722E-01  0.138E+00    1.09       1.0  T
   3     -6.1140939  0.940892E-02  0.182E+00    1.34       1.0  T
   4     -6.1360044 -0.219105E-01  0.845E-01    1.17       1.0  T
   5     -6.1390200 -0.301561E-02  0.260E-01    1.17       1.0  T
   6     -6.1391538 -0.133816E-03  0.260E-01    1.14       1.0  T
   7     -6.1402000 -0.104611E-02  0.674E-02    1.15       1.0  T
   8     -6.1400507  0.149243E-03  0.147E-01    1.16       1.0  T
   9     -6.1401995 -0.148835E-03  0.324E-02    1.15       1.0  T
  10     -6.1401994  0.192410E-06  0.243E-02    1.15       1.4  T
  11     -6.1402032 -0.385770E-05  0.683E-03    1.15       4.9  T
  12     -6.1402037 -0.485071E-06  0.310E-03    1.15      10.8  T
  13     -6.1402037  0.770833E-08  0.221E-03    1.15      15.1  T
  14     -6.1402037 -0.588855E-07  0.658E-04    1.15      50.7  T
  15     -6.1402038 -0.446421E-08  0.253E-04    1.15     132.0  T
     SCC iter.                  ...        0 min,  0.002 sec
     gradient                   ...        0 min,  0.000 sec
 * total energy  :    -5.9978894 Eh     change       -0.5370011E-02 Eh
   gradient norm :     0.0592840 Eh/α   predicted    -0.7768397E-02 (  44.66%)
   displ. norm   :     0.4492954 α      lambda       -0.1014825E-01
   maximum displ.:     0.2340258 α      in ANC's #1, #6, #11, ...

........................................................................
.............................. CYCLE   19 ..............................
........................................................................
   1     -6.0897033 -0.608970E+01  0.313E+00    1.32       0.0  T
   2     -5.6885266  0.401177E+00  0.597E+00    2.24       1.0  T
   3     -5.8123232 -0.123797E+00  0.506E+00    1.03       1.0  T
   4     -6.0932832 -0.280960E+00  0.213E+00    1.53       1.0  T
   5     -5.9487452  0.144538E+00  0.345E+00    1.69       1.0  T
   6     -6.0560317 -0.107287E+00  0.246E+00    1.63       1.0  T
   7     -6.0862651 -0.302334E-01  0.163E+00    1.63       1.0  T
   8     -6.0919400 -0.567486E-02  0.150E+00    1.58       1.0  T
   9     -6.1062575 -0.143175E-01  0.958E-01    1.50       1.0  T
  10     -6.1065090 -0.251541E-03  0.945E-01    1.50       1.0  T
  11     -6.1065546 -0.455801E-04  0.909E-01    1.51       1.0  T
  12     -6.1123865 -0.583191E-02  0.458E-01    1.46       1.0  T
  13     -6.1123204  0.661724E-04  0.431E-01    1.47       1.0  T
  14     -6.1127195 -0.399123E-03  0.336E-01    1.46       1.0  T
  15     -6.1134944 -0.774928E-03  0.169E-01    1.45       1.0  T
  16     -6.1136533 -0.158913E-03  0.121E-01    1.44       1.0  T
  17     -6.1138287 -0.175418E-03  0.353E-02    1.44       1.0  T
  18     -6.1138424 -0.136639E-04  0.214E-02    1.44       1.6  T
  19     -6.1138441 -0.168686E-05  0.660E-03    1.43       5.1  T
  20     -6.1138442 -0.123831E-06  0.126E-03    1.43      26.6  T
  21     -6.1138442 -0.416946E-10  0.121E-03    1.43      27.5  T
  22     -6.1138442 -0.571280E-08  0.506E-04    1.43      65.9  T
  23     -6.1138442 -0.177210E-08  0.170E-04    1.43     196.3  T
     SCC iter.                  ...        0 min,  0.003 sec
     gradient                   ...        0 min,  0.001 sec
 * total energy  :    -5.9949260 Eh     change        0.2963401E-02 Eh
   gradient norm :     0.0609835 Eh/α   predicted    -0.6098416E-02 (-305.79%)
   displ. norm   :     0.2905382 α      lambda       -0.1085206E-01
   maximum displ.:     0.1235652 α      in ANC's #5, #2, #6, ...

........................................................................
.............................. CYCLE   20 ..............................
........................................................................
   1     -6.1124401 -0.611244E+01  0.200E+00    1.33       0.0  T
   2     -5.5381276  0.574313E+00  0.621E+00    0.86       1.0  T
   3     -5.9688667 -0.430739E+00  0.396E+00    1.81       1.0  T
   4     -6.0168852 -0.480186E-01  0.324E+00    1.64       1.0  T
   5     -6.0210597 -0.417443E-02  0.308E+00    1.64       1.0  T
   6     -5.9746175  0.464422E-01  0.295E+00    1.66       1.0  T
   7     -6.0995791 -0.124962E+00  0.132E+00    1.38       1.0  T
   8     -6.1098290 -0.102500E-01  0.106E+00    1.34       1.0  T
   9     -6.1189526 -0.912355E-02  0.548E-01    1.28       1.0  T
  10     -6.1201038 -0.115123E-02  0.295E-01    1.27       1.0  T
  11     -6.1203728 -0.268940E-03  0.184E-01    1.26       1.0  T
  12     -6.1206047 -0.231987E-03  0.578E-02    1.26       1.0  T
  13     -6.1206174 -0.126988E-04  0.446E-02    1.26       1.0  T
  14     -6.1206369 -0.194116E-04  0.131E-02    1.25       2.5  T
  15     -6.1206377 -0.834947E-06  0.120E-02    1.25       2.8  T
  16     -6.1206378 -0.949806E-07  0.306E-03    1.25      10.9  T
  17     -6.1206378  0.146214E-07  0.575E-03    1.25       5.8  T
  18     -6.1206378 -0.580739E-07  0.171E-03    1.25      19.5  T
  19     -6.1206378 -0.805126E-08  0.697E-04    1.25      47.9  T
  20     -6.1206378 -0.575984E-09  0.309E-04    1.25     107.8  T
     SCC iter.                  ...        0 min,  0.003 sec
     gradient                   ...        0 min,  0.000 sec
 * total energy  :    -6.0005071 Eh     change       -0.5581151E-02 Eh
   gradient norm :     0.0267927 Eh/α   predicted    -0.5884056E-02 (   5.43%)
   displ. norm   :     0.2726265 α      lambda       -0.3429929E-02
   maximum displ.:     0.1150387 α      in ANC's #5, #3, #8, ...
 * RMSD in coord.:     1.8543299 α      energy gain  -0.3919681E+00 Eh

generating ANC from model Hessian ...
Using Lindh-Hessian (1995)
 Shifting diagonal of input Hessian by    1.0290518391988062E-002
 Lowest  eigenvalues of input Hessian
    0.010000    0.010142    0.010207    0.000000    0.000000    0.000000
    0.000000    0.000000    0.000000    0.010337    0.010375    0.010473
    0.010581    0.010865    0.011135    0.011524    0.011762    0.013133
 Highest eigenvalues
    0.271766    0.398723    0.485282    0.560644    0.695459    1.256048


........................................................................
.............................. CYCLE   21 ..............................
........................................................................
   1     -6.1409312 -0.614093E+01  0.911E-01    1.28       0.0  T
   2     -6.1152475  0.256837E-01  0.122E+00    1.18       1.0  T
   3     -6.0848257  0.304218E-01  0.217E+00    1.50       1.0  T
   4     -6.1105234 -0.256977E-01  0.143E+00    1.32       1.0  T
   5     -6.1349944 -0.244710E-01  0.842E-01    1.34       1.0  T
   6     -6.1399823 -0.498792E-02  0.335E-01    1.29       1.0  T
   7     -6.1411510 -0.116874E-02  0.258E-01    1.27       1.0  T
   8     -6.1412706 -0.119595E-03  0.227E-01    1.28       1.0  T
   9     -6.1416510 -0.380377E-03  0.449E-02    1.26       1.0  T
  10     -6.1416482  0.281836E-05  0.447E-02    1.26       1.0  T
  11     -6.1416647 -0.164998E-04  0.729E-03    1.26       4.6  T
  12     -6.1416651 -0.430873E-06  0.357E-03    1.26       9.3  T
  13     -6.1416652 -0.842650E-07  0.179E-03    1.26      18.6  T
  14     -6.1416652 -0.381421E-07  0.719E-04    1.26      46.4  T
  15     -6.1416653 -0.380037E-08  0.863E-05    1.26     386.1  T
     SCC iter.                  ...        0 min,  0.002 sec
     gradient                   ...        0 min,  0.000 sec
 * total energy  :    -6.0016420 Eh     change       -0.1134874E-02 Eh
   gradient norm :     0.0338205 Eh/α   predicted     0.0000000E+00 (-100.00%)
   displ. norm   :     0.4734284 α      lambda       -0.5833322E-02
   maximum displ.:     0.4447199 α      in ANC's #12, #8, #14, ...

........................................................................
.............................. CYCLE   22 ..............................
........................................................................
   1     -6.1377030 -0.613770E+01  0.208E+00    1.34       0.0  T
   2     -6.0991143  0.385887E-01  0.175E+00    1.22       1.0  T
   3     -5.8163841  0.282730E+00  0.450E+00    1.87       1.0  T
   4     -6.0677208 -0.251337E+00  0.207E+00    1.51       1.0  T
   5     -6.1157169 -0.479961E-01  0.134E+00    1.46       1.0  T
   6     -6.1317239 -0.160070E-01  0.715E-01    1.40       1.0  T
   7     -6.1350145 -0.329059E-02  0.595E-01    1.39       1.0  T
   8     -6.1375748 -0.256037E-02  0.328E-01    1.37       1.0  T
   9     -6.1389345 -0.135970E-02  0.101E-01    1.37       1.0  T
  10     -6.1389543 -0.197829E-04  0.944E-02    1.37       1.0  T
  11     -6.1389950 -0.406819E-04  0.505E-02    1.37       1.0  T
  12     -6.1389897  0.529124E-05  0.453E-02    1.37       1.0  T
  13     -6.1390046 -0.148857E-04  0.255E-02    1.37       1.3  T
  14     -6.1390093 -0.470346E-05  0.901E-03    1.37       3.7  T
  15     -6.1390099 -0.568907E-06  0.518E-03    1.37       6.4  T
  16     -6.1390102 -0.327431E-06  0.900E-04    1.37      37.0  T
  17     -6.1390102 -0.486017E-09  0.517E-04    1.37      64.5  T
     SCC iter.                  ...        0 min,  0.002 sec
     gradient                   ...        0 min,  0.001 sec
 * total energy  :    -6.0096019 Eh     change       -0.7959907E-02 Eh
   gradient norm :     0.0270372 Eh/α   predicted    -0.3570385E-02 ( -55.15%)
   displ. norm   :     0.7015702 α      lambda       -0.1574141E-01
   maximum displ.:     0.6492749 α      in ANC's #12, #13, #14, ...

........................................................................
.............................. CYCLE   23 ..............................
........................................................................
   1     -6.1406184 -0.614062E+01  0.329E+00    1.38       0.0  T
   2     -5.7249536  0.415665E+00  0.481E+00    1.34       1.0  T
   3     -5.8731189 -0.148165E+00  0.461E+00    1.43       1.0  T
   4     -5.8719323  0.118668E-02  0.354E+00    1.67       1.0  T
   5     -5.5174140  0.354518E+00  0.469E+00    1.17       1.0  T
   6     -6.0976482 -0.580234E+00  0.206E+00    1.52       1.0  T
   7     -6.1214710 -0.238228E-01  0.155E+00    1.47       1.0  T
   8     -6.1493607 -0.278897E-01  0.820E-01    1.44       1.0  T
   9     -6.1479056  0.145507E-02  0.739E-01    1.45       1.0  T
  10     -6.1493062 -0.140057E-02  0.324E-01    1.44       1.0  T
  11     -6.1499268 -0.620537E-03  0.340E-01    1.44       1.0  T
  12     -6.1510704 -0.114364E-02  0.176E-01    1.45       1.0  T
  13     -6.1512695 -0.199098E-03  0.141E-01    1.45       1.0  T
  14     -6.1515239 -0.254362E-03  0.329E-02    1.45       1.0  T
  15     -6.1515432 -0.193143E-04  0.134E-02    1.46       2.5  T
  16     -6.1515450 -0.185961E-05  0.827E-03    1.46       4.0  T
  17     -6.1515463 -0.128722E-05  0.271E-03    1.46      12.3  T
  18     -6.1515464 -0.865663E-07  0.745E-04    1.46      44.7  T
  19     -6.1515464 -0.574529E-08  0.288E-04    1.46     115.9  T
     SCC iter.                  ...        0 min,  0.003 sec
     gradient                   ...        0 min,  0.000 sec
 * total energy  :    -6.0301695 Eh     change       -0.2056761E-01 Eh
   gradient norm :     0.0413825 Eh/α   predicted    -0.1174467E-01 ( -42.90%)
   displ. norm   :     0.7430466 α      lambda       -0.2587778E-01
   maximum displ.:     0.6209812 α      in ANC's #12, #13, #14, ...

........................................................................
.............................. CYCLE   24 ..............................
........................................................................
   1     -6.1596708 -0.615967E+01  0.314E+00    1.30       0.0  T
   2     -5.8617330  0.297938E+00  0.402E+00    0.99       1.0  T
   3     -6.0060004 -0.144267E+00  0.302E+00    1.59       1.0  T
   4     -5.9283948  0.776056E-01  0.391E+00    1.03       1.0  T
   5     -6.1584806 -0.230086E+00  0.106E+00    1.29       1.0  T
   6     -6.1558801  0.260046E-02  0.958E-01    1.35       1.0  T
   7     -6.1707049 -0.148248E-01  0.507E-01    1.33       1.0  T
   8     -6.1700267  0.678156E-03  0.483E-01    1.32       1.0  T
   9     -6.1705721 -0.545393E-03  0.322E-01    1.35       1.0  T
  10     -6.1728461 -0.227398E-02  0.914E-02    1.33       1.0  T
  11     -6.1729230 -0.768607E-04  0.240E-02    1.34       1.4  T
  12     -6.1729281 -0.510591E-05  0.132E-02    1.34       2.5  T
  13     -6.1729307 -0.260209E-05  0.836E-03    1.34       4.0  T
  14     -6.1729323 -0.162634E-05  0.174E-03    1.34      19.1  T
  15     -6.1729324 -0.483166E-07  0.983E-04    1.34      33.9  T
  16     -6.1729324 -0.860229E-08  0.588E-04    1.34      56.7  T
     SCC iter.                  ...        0 min,  0.002 sec
     gradient                   ...        0 min,  0.000 sec
 * total energy  :    -6.0376503 Eh     change       -0.7480737E-02 Eh
   gradient norm :     0.0742955 Eh/α   predicted    -0.2008271E-01 ( 168.46%)
   displ. norm   :     0.3849535 α      lambda       -0.2178366E-01
   maximum displ.:     0.3097070 α      in ANC's #12, #13, #15, ...

........................................................................
.............................. CYCLE   25 ..............................
........................................................................
   1     -6.1564772 -0.615648E+01  0.147E+00    1.53       0.0  T
   2     -6.0001051  0.156372E+00  0.256E+00    1.70       1.0  T
   3     -6.1290154 -0.128910E+00  0.133E+00    1.45       1.0  T
   4     -6.1214203  0.759512E-02  0.180E+00    1.56       1.0  T
   5     -6.1298804 -0.846006E-02  0.124E+00    1.61       1.0  T
   6     -6.1633446 -0.334642E-01  0.542E-01    1.55       1.0  T
   7     -6.1661910 -0.284639E-02  0.353E-01    1.55       1.0  T
   8     -6.1678780 -0.168700E-02  0.891E-02    1.55       1.0  T
   9     -6.1678430  0.350312E-04  0.862E-02    1.55       1.0  T
  10     -6.1679499 -0.106935E-03  0.193E-02    1.55       1.7  T
  11     -6.1679595 -0.963213E-05  0.445E-03    1.54       7.5  T
  12     -6.1679598 -0.307514E-06  0.129E-03    1.54      25.8  T
  13     -6.1679599 -0.248432E-07  0.525E-04    1.54      63.4  T
  14     -6.1679599  0.213689E-09  0.303E-04    1.54     110.1  T
     SCC iter.                  ...        0 min,  0.002 sec
     gradient                   ...        0 min,  0.000 sec
 * total energy  :    -6.0429379 Eh     change       -0.5287625E-02 Eh
   gradient norm :     0.0271943 Eh/α   predicted    -0.1250587E-01 ( 136.51%)
   displ. norm   :     0.2078207 α      lambda       -0.2889329E-02
   maximum displ.:     0.1062458 α      in ANC's #13, #14, #7, ...

........................................................................
.............................. CYCLE   26 ..............................
........................................................................
   1     -6.1733909 -0.617339E+01  0.957E-01    1.58       0.0  T
   2     -6.1724008  0.990146E-03  0.730E-01    1.57       1.0  T
   3     -6.0294641  0.142937E+00  0.204E+00    1.47       1.0  T
   4     -6.1558218 -0.126358E+00  0.955E-01    1.59       1.0  T
   5     -6.1675203 -0.116985E-01  0.427E-01    1.58       1.0  T
   6     -6.1702579 -0.273757E-02  0.376E-01    1.55       1.0  T
   7     -6.1734816 -0.322371E-02  0.769E-02    1.58       1.0  T
   8     -6.1734833 -0.171669E-05  0.699E-02    1.58       1.0  T
   9     -6.1734229  0.603572E-04  0.533E-02    1.58       1.0  T
  10     -6.1734989 -0.760021E-04  0.128E-02    1.58       2.6  T
  11     -6.1735020 -0.303854E-05  0.329E-03    1.58      10.1  T
  12     -6.1735022 -0.225356E-06  0.135E-03    1.58      24.6  T
  13     -6.1735022  0.176245E-08  0.609E-04    1.58      54.7  T
  14     -6.1735022 -0.833375E-08  0.178E-04    1.58     187.2  T
     SCC iter.                  ...        0 min,  0.002 sec
     gradient                   ...        0 min,  0.001 sec
 * total energy  :    -6.0448475 Eh     change       -0.1909643E-02 Eh
   gradient norm :     0.0127592 Eh/α   predicted    -0.1507059E-02 ( -21.08%)
   displ. norm   :     0.2794021 α      lambda       -0.2238396E-02
   maximum displ.:     0.2020308 α      in ANC's #12, #14, #10, ...

........................................................................
.............................. CYCLE   27 ..............................
........................................................................
   1     -6.1735504 -0.617355E+01  0.112E+00    1.52       0.0  T
   2     -6.1443392  0.292112E-01  0.123E+00    1.49       1.0  T
   3     -6.1078934  0.364457E-01  0.180E+00    1.40       1.0  T
   4     -6.1415771 -0.336837E-01  0.123E+00    1.66       1.0  T
   5     -6.1646949 -0.231177E-01  0.664E-01    1.49       1.0  T
   6     -6.1735351 -0.884027E-02  0.252E-01    1.52       1.0  T
   7     -6.1742032 -0.668104E-03  0.243E-01    1.54       1.0  T
   8     -6.1748673 -0.664021E-03  0.704E-02    1.53       1.0  T
   9     -6.1749372 -0.699391E-04  0.279E-02    1.53       1.2  T
  10     -6.1749453 -0.809019E-05  0.765E-03    1.53       4.4  T
  11     -6.1749452  0.923524E-07  0.593E-03    1.53       5.6  T
  12     -6.1749457 -0.492355E-06  0.115E-03    1.53      28.9  T
  13     -6.1749457 -0.237894E-07  0.282E-04    1.53     118.3  T
  14     -6.1749457 -0.927018E-10  0.163E-04    1.53     204.6  T
     SCC iter.                  ...        0 min,  0.001 sec
     gradient                   ...        0 min,  0.000 sec
 * total energy  :    -6.0448173 Eh     change        0.3022626E-04 Eh
   gradient norm :     0.0219324 Eh/α   predicted    -0.1206567E-02 (*******%)
   displ. norm   :     0.1554118 α      lambda       -0.1859934E-02
   maximum displ.:     0.0898863 α      in ANC's #13, #12, #14, ...

........................................................................
.............................. CYCLE   28 ..............................
........................................................................
   1     -6.1753710 -0.617537E+01  0.601E-01    1.53       0.0  T
   2     -6.1665002  0.887077E-02  0.768E-01    1.53       1.0  T
   3     -6.1649844  0.151580E-02  0.717E-01    1.56       1.0  T
   4     -6.1615448  0.343963E-02  0.880E-01    1.42       1.0  T
   5     -6.1705084 -0.896364E-02  0.412E-01    1.52       1.0  T
   6     -6.1746699 -0.416141E-02  0.250E-01    1.51       1.0  T
   7     -6.1756104 -0.940536E-03  0.114E-01    1.52       1.0  T
   8     -6.1758292 -0.218859E-03  0.205E-02    1.53       1.6  T
   9     -6.1758337 -0.445487E-05  0.111E-02    1.53       3.0  T
  10     -6.1758356 -0.185972E-05  0.519E-03    1.53       6.4  T
  11     -6.1758360 -0.436005E-06  0.104E-03    1.53      32.1  T
  12     -6.1758360 -0.155337E-07  0.356E-04    1.53      93.6  T
  13     -6.1758360 -0.221951E-08  0.125E-04    1.53     267.0  T
     SCC iter.                  ...        0 min,  0.001 sec
     gradient                   ...        0 min,  0.001 sec
 * total energy  :    -6.0456675 Eh     change       -0.8502169E-03 Eh
   gradient norm :     0.0047559 Eh/α   predicted    -0.9524257E-03 (  12.02%)
   displ. norm   :     0.1235709 α      lambda       -0.3004364E-03
   maximum displ.:     0.0554731 α      in ANC's #7, #1, #4, ...

........................................................................
.............................. CYCLE   29 ..............................
........................................................................
   1     -6.1727758 -0.617278E+01  0.398E-01    1.56       0.0  T
   2     -6.1671839  0.559189E-02  0.545E-01    1.58       1.0  T
   3     -6.1673706 -0.186686E-03  0.536E-01    1.52       1.0  T
   4     -6.1676288 -0.258215E-03  0.493E-01    1.59       1.0  T
   5     -6.1705500 -0.292124E-02  0.305E-01    1.58       1.0  T
   6     -6.1729823 -0.243229E-02  0.772E-02    1.56       1.0  T
   7     -6.1730587 -0.763549E-04  0.384E-02    1.56       1.0  T
   8     -6.1730758 -0.171775E-04  0.970E-03    1.56       3.4  T
   9     -6.1730773 -0.145747E-05  0.236E-03    1.56      14.1  T
  10     -6.1730774 -0.972910E-07  0.701E-04    1.56      47.6  T
  11     -6.1730774  0.338921E-08  0.552E-04    1.56      60.4  T
     SCC iter.                  ...        0 min,  0.001 sec
     gradient                   ...        0 min,  0.000 sec
 * total energy  :    -6.0457972 Eh     change       -0.1297118E-03 Eh
   gradient norm :     0.0047745 Eh/α   predicted    -0.1525119E-03 (  17.58%)
   displ. norm   :     0.1725542 α      lambda       -0.2433744E-03
   maximum displ.:     0.1106953 α      in ANC's #4, #10, #1, ...

........................................................................
.............................. CYCLE   30 ..............................
........................................................................
   1     -6.1747620 -0.617476E+01  0.178E-01    1.56       0.0  T
   2     -6.1745659  0.196059E-03  0.141E-01    1.56       1.0  T
   3     -6.1719063  0.265962E-02  0.384E-01    1.54       1.0  T
   4     -6.1744967 -0.259041E-02  0.132E-01    1.57       1.0  T
   5     -6.1747707 -0.273957E-03  0.206E-02    1.56       1.6  T
   6     -6.1747437  0.269960E-04  0.323E-02    1.56       1.0  T
   7     -6.1747743 -0.305930E-04  0.770E-03    1.56       4.3  T
   8     -6.1747748 -0.475597E-06  0.465E-03    1.56       7.2  T
   9     -6.1747752 -0.481556E-06  0.775E-04    1.56      43.0  T
  10     -6.1747752 -0.348524E-08  0.360E-04    1.56      92.5  T
     SCC iter.                  ...        0 min,  0.001 sec
     gradient                   ...        0 min,  0.000 sec
 * total energy  :    -6.0460068 Eh     change       -0.2095352E-03 Eh
   gradient norm :     0.0049468 Eh/α   predicted    -0.1253094E-03 ( -40.20%)
   displ. norm   :     0.4624235 α      lambda       -0.5317054E-03
   maximum displ.:     0.2743399 α      in ANC's #4, #10, #5, ...

........................................................................
.............................. CYCLE   31 ..............................
........................................................................
   1     -6.1739460 -0.617395E+01  0.487E-01    1.54       0.0  T
   2     -6.1737074  0.238616E-03  0.319E-01    1.54       1.0  T
   3     -6.1497439  0.239635E-01  0.107E+00    1.49       1.0  T
   4     -6.1734568 -0.237129E-01  0.160E-01    1.57       1.0  T
   5     -6.1735754 -0.118611E-03  0.128E-01    1.54       1.0  T
   6     -6.1739042 -0.328808E-03  0.625E-02    1.54       1.0  T
   7     -6.1739497 -0.454628E-04  0.304E-02    1.55       1.1  T
   8     -6.1739630 -0.133478E-04  0.178E-02    1.55       1.9  T
   9     -6.1739697 -0.663490E-05  0.319E-03    1.55      10.5  T
  10     -6.1739699 -0.194560E-06  0.865E-04    1.55      38.5  T
  11     -6.1739699 -0.136921E-08  0.476E-04    1.55      70.0  T
     SCC iter.                  ...        0 min,  0.001 sec
     gradient                   ...        0 min,  0.000 sec
 * total energy  :    -6.0464167 Eh     change       -0.4099367E-03 Eh
   gradient norm :     0.0095030 Eh/α   predicted    -0.3227076E-03 ( -21.28%)
   displ. norm   :     0.7271088 α      lambda       -0.8921280E-03
   maximum displ.:     0.4976557 α      in ANC's #4, #10, #1, ...

........................................................................
.............................. CYCLE   32 ..............................
........................................................................
   1     -6.1765203 -0.617652E+01  0.813E-01    1.53       0.0  T
   2     -6.1764166  0.103720E-03  0.534E-01    1.52       1.0  T
   3     -6.1549166  0.215000E-01  0.879E-01    1.55       1.0  T
   4     -6.1756180 -0.207015E-01  0.207E-01    1.54       1.0  T
   5     -6.1749042  0.713860E-03  0.291E-01    1.50       1.0  T
   6     -6.1761162 -0.121199E-02  0.150E-01    1.53       1.0  T
   7     -6.1765923 -0.476127E-03  0.429E-02    1.54       1.0  T
   8     -6.1765793  0.130036E-04  0.316E-02    1.53       1.1  T
   9     -6.1766042 -0.249018E-04  0.511E-03    1.53       6.5  T
  10     -6.1766043 -0.152102E-06  0.318E-03    1.53      10.5  T
  11     -6.1766045 -0.193222E-06  0.103E-03    1.53      32.5  T
  12     -6.1766045 -0.148318E-07  0.291E-04    1.53     114.6  T
  13     -6.1766045 -0.121162E-08  0.586E-05    1.53     568.4  T
     SCC iter.                  ...        0 min,  0.002 sec
     gradient                   ...        0 min,  0.000 sec
 * total energy  :    -6.0469709 Eh     change       -0.5541542E-03 Eh
   gradient norm :     0.0108284 Eh/α   predicted    -0.6819004E-03 (  23.05%)
   displ. norm   :     0.6063991 α      lambda       -0.8717018E-03
   maximum displ.:     0.4019426 α      in ANC's #4, #6, #5, ...

........................................................................
.............................. CYCLE   33 ..............................
........................................................................
   1     -6.1713449 -0.617134E+01  0.105E+00    1.54       0.0  T
   2     -6.1709319  0.413021E-03  0.692E-01    1.52       1.0  T
   3     -6.1183956  0.525362E-01  0.145E+00    1.69       1.0  T
   4     -6.1698481 -0.514525E-01  0.311E-01    1.53       1.0  T
   5     -6.1700517 -0.203642E-03  0.255E-01    1.53       1.0  T
   6     -6.1702667 -0.214931E-03  0.226E-01    1.52       1.0  T
   7     -6.1714004 -0.113377E-02  0.724E-02    1.53       1.0  T
   8     -6.1714689 -0.684960E-04  0.178E-02    1.54       1.9  T
   9     -6.1714727 -0.379848E-05  0.804E-03    1.54       4.1  T
  10     -6.1714738 -0.110247E-05  0.258E-03    1.54      12.9  T
  11     -6.1714740 -0.150430E-06  0.111E-03    1.54      30.1  T
  12     -6.1714740 -0.116462E-07  0.362E-04    1.54      92.0  T
  13     -6.1714740 -0.823313E-09  0.249E-04    1.54     133.6  T
     SCC iter.                  ...        0 min,  0.001 sec
     gradient                   ...        0 min,  0.000 sec
 * total energy  :    -6.0476169 Eh     change       -0.6460454E-03 Eh
   gradient norm :     0.0105595 Eh/α   predicted    -0.5961229E-03 (  -7.73%)
   displ. norm   :     0.4172753 α      lambda       -0.1239485E-02
   maximum displ.:     0.2354757 α      in ANC's #4, #6, #9, ...

........................................................................
.............................. CYCLE   34 ..............................
........................................................................
   1     -6.1641143 -0.616411E+01  0.139E+00    1.55       0.0  T
   2     -6.1607407  0.337359E-02  0.954E-01    1.50       1.0  T
   3     -5.9939431  0.166798E+00  0.277E+00    1.79       1.0  T
   4     -6.1592721 -0.165329E+00  0.441E-01    1.58       1.0  T
   5     -6.1602125 -0.940425E-03  0.423E-01    1.55       1.0  T
   6     -6.1641659 -0.395339E-02  0.967E-02    1.53       1.0  T
   7     -6.1642521 -0.861656E-04  0.724E-02    1.53       1.0  T
   8     -6.1642966 -0.445884E-04  0.415E-02    1.54       1.0  T
   9     -6.1643279 -0.312332E-04  0.776E-03    1.54       4.3  T
  10     -6.1643281 -0.255371E-06  0.422E-03    1.54       7.9  T
[...]
   1     -6.1673462 -0.616735E+01  0.350E-01    1.57       0.0  T
   2     -6.1673078  0.383692E-04  0.229E-01    1.57       1.0  T
   3     -6.1603748  0.693307E-02  0.478E-01    1.55       1.0  T
   4     -6.1672942 -0.691943E-02  0.584E-02    1.57       1.0  T
   5     -6.1673276 -0.333948E-04  0.373E-02    1.57       1.0  T
   6     -6.1673371 -0.950731E-05  0.315E-02    1.57       1.1  T
   7     -6.1673442 -0.707442E-05  0.174E-02    1.57       1.9  T
   8     -6.1673501 -0.593792E-05  0.191E-03    1.57      17.4  T
   9     -6.1673501 -0.193952E-07  0.127E-03    1.57      26.3  T
  10     -6.1673502 -0.281828E-07  0.392E-04    1.57      85.0  T
  11     -6.1673502 -0.244862E-08  0.651E-05    1.57     512.2  T
     SCC iter.                  ...        0 min,  0.002 sec
     gradient                   ...        0 min,  0.001 sec
 * total energy  :    -6.0526035 Eh     change       -0.1382972E-04 Eh
   gradient norm :     0.0010826 Eh/α   predicted    -0.1053613E-04 ( -23.82%)
   displ. norm   :     0.0408634 α      lambda       -0.5762236E-05
   maximum displ.:     0.0231094 α      in ANC's #10, #8, #11, ...

........................................................................
.............................. CYCLE   99 ..............................
........................................................................
   1     -6.1675487 -0.616755E+01  0.155E-01    1.57       0.0  T
   2     -6.1675470  0.168831E-05  0.101E-01    1.57       1.0  T
   3     -6.1670595  0.487540E-03  0.153E-01    1.58       1.0  T
   4     -6.1675462 -0.486681E-03  0.155E-02    1.57       2.1  T
   5     -6.1675445  0.168641E-05  0.149E-02    1.57       2.2  T
   6     -6.1675424  0.204808E-05  0.164E-02    1.57       2.0  T
   7     -6.1675491 -0.668519E-05  0.171E-03    1.57      19.5  T
   8     -6.1675492 -0.286206E-07  0.554E-04    1.57      60.2  T
   9     -6.1675492 -0.682093E-09  0.161E-04    1.57     206.6  T
     SCC iter.                  ...        0 min,  0.002 sec
     gradient                   ...        0 min,  0.000 sec
 * total energy  :    -6.0526106 Eh     change       -0.7065611E-05 Eh
   gradient norm :     0.0007294 Eh/α   predicted    -0.2883774E-05 ( -59.19%)
   displ. norm   :     0.1073337 α      lambda       -0.1009076E-04
   maximum displ.:     0.0671934 α      in ANC's #10, #5, #11, ...

........................................................................
.............................. CYCLE  100 ..............................
........................................................................
   1     -6.1677622 -0.616776E+01  0.398E-01    1.57       0.0  T
   2     -6.1677465  0.156921E-04  0.259E-01    1.57       1.0  T
   3     -6.1634131  0.433342E-02  0.461E-01    1.59       1.0  T
   4     -6.1677454 -0.433227E-02  0.423E-02    1.57       1.0  T
   5     -6.1677496 -0.425424E-05  0.321E-02    1.57       1.0  T
   6     -6.1676784  0.712629E-04  0.554E-02    1.57       1.0  T
   7     -6.1677649 -0.865112E-04  0.497E-03    1.57       6.7  T
   8     -6.1677652 -0.316136E-06  0.137E-03    1.57      24.3  T
   9     -6.1677652 -0.993809E-09  0.486E-04    1.57      68.5  T
  10     -6.1677652  0.142611E-08  0.380E-04    1.57      87.7  T
     SCC iter.                  ...        0 min,  0.001 sec
     gradient                   ...        0 min,  0.001 sec
 * total energy  :    -6.0526187 Eh     change       -0.8171323E-05 Eh
   gradient norm :     0.0007107 Eh/α   predicted    -0.5070554E-05 ( -37.95%)
   displ. norm   :     0.0295961 α      lambda       -0.1990773E-05
   maximum displ.:     0.0163724 α      in ANC's #10, #5, #3, ...

........................................................................
.............................. CYCLE  101 ..............................
........................................................................
   1     -6.1679550 -0.616796E+01  0.597E-02    1.57       0.0  T
   2     -6.1679375  0.175362E-04  0.492E-02    1.57       1.0  T
   3     -6.1676717  0.265834E-03  0.119E-01    1.58       1.0  T
   4     -6.1679237 -0.252016E-03  0.410E-02    1.57       1.0  T
   5     -6.1679458 -0.221702E-04  0.194E-02    1.57       1.7  T
   6     -6.1679561 -0.102230E-04  0.429E-03    1.57       7.8  T
   7     -6.1679561 -0.364839E-07  0.242E-03    1.57      13.7  T
   8     -6.1679562 -0.784053E-07  0.566E-04    1.57      58.9  T
   9     -6.1679562 -0.684190E-10  0.272E-04    1.57     122.6  T
     SCC iter.                  ...        0 min,  0.001 sec
     gradient                   ...        0 min,  0.000 sec
 * total energy  :    -6.0526201 Eh     change       -0.1345261E-05 Eh
   gradient norm :     0.0003195 Eh/α   predicted    -0.9964477E-06 ( -25.93%)
   displ. norm   :     0.0275474 α      lambda       -0.1015032E-05
   maximum displ.:     0.0149435 α      in ANC's #10, #5, #1, ...

   *** GEOMETRY OPTIMIZATION CONVERGED AFTER 101 ITERATIONS ***

------------------------------------------------------------------------
 total energy gain   :        -0.4440810 Eh     -278.6650 kcal/mol
 total RMSD          :         3.3708258 a0        1.7838 Å
 total power (kW/mol):       -11.5439064 (step)-4404.1733 (real)
------------------------------------------------------------------------

 ANCopt (total)                0 d,  0 h,  0 min,  0.265 sec
 optimizer setup                ...        0 min,  0.000 sec (  0.010%)
 model hessian                  ...        0 min,  0.001 sec (  0.338%)
 ANC generation                 ...        0 min,  0.000 sec (  0.094%)
 coordinate transformation      ...        0 min,  0.000 sec (  0.096%)
 single point calculation       ...        0 min,  0.255 sec ( 96.484%)
 optimization log               ...        0 min,  0.003 sec (  1.064%)
 hessian update                 ...        0 min,  0.002 sec (  0.683%)
 rational function              ...        0 min,  0.002 sec (  0.620%)

================
 final structure:
================
9
 xtb: 6.5.1 (conda-forge)
Be           1.37727460989705        0.70664460064749        1.56054505756873
Be           2.73192050318638       -0.30662484006739        0.69083168260079
B            4.14940172504392       -0.19058885600820        1.91628829894814
B            2.90838868185612        0.53175910280156        2.32855278991529
H            5.26652773876370       -0.56984934413102        2.03461030289643
H            4.06241700699162        2.45824987275468        1.75298483257723
H            4.43306790522190        3.19709652371194        1.66527287991485
H            2.65899523813392       -1.24708602571751        3.82512623486399
H            2.54000659090815       -1.77866403399219        4.44928792071528

 Bond Distances (Angstroems)
 ---------------------------
Be1-Be2=1.9022       Be1-B4=1.7218        Be2-Be1=1.9022       Be2-B3=1.8774        Be2-B4=1.8483        B3-Be2=1.8774        
B3-B4=1.4939         B3-H5=1.1857         B4-Be1=1.7218        B4-Be2=1.8483        B4-B3=1.4939         H5-B3=1.1857         
H6-H7=0.8312         H7-H6=0.8312         H8-H9=0.8284         H9-H8=0.8284         
 H  H  Rav=0.8298 sigma=0.0014  Rmin=0.8284  Rmax=0.8312     2
 Be Be Rav=1.9022 sigma=0.0000  Rmin=1.9022  Rmax=1.9022     1
 B  H  Rav=1.1857 sigma=0.0000  Rmin=1.1857  Rmax=1.1857     1
 B  Be Rav=1.8158 sigma=0.0675  Rmin=1.7218  Rmax=1.8774     3
 B  B  Rav=1.4939 sigma=0.0000  Rmin=1.4939  Rmax=1.4939     1

 selected bond angles (degree)
 --------------------
B4-Be1-Be2= 61.09              B3-Be2-Be1=101.91              B4-Be2-Be1= 54.64              B4-Be2-B3= 47.27               
B4-B3-Be2= 65.34               H5-B3-Be2=139.18               H5-B3-B4=155.48                Be2-B4-Be1= 64.27              
B3-B4-Be1=131.66               B3-B4-Be2= 67.39               

 selected dihedral angles (degree)
 ---------------------------------
B3-Be2-Be1-B4=  0.18          B4-B3-Be2-Be1=359.80          H5-B3-Be2-Be1=179.76          H5-B3-Be2-B4=179.97           
B3-B4-Be1-Be2=359.70          Be1-B4-Be2-B3=180.25          B3-B4-Be2-Be1=179.75          Be1-B4-B3-Be2=  0.30          
Be1-B4-B3-H5=180.35           Be2-B4-B3-H5=180.05           

 CMA Distance (Angstroems)
 ---------------------------
R(CMA):  2.1025
           -------------------------------------------------
          |                Final Singlepoint                |
           -------------------------------------------------

          ...................................................
          :                      SETUP                      :
          :.................................................:
          :  # basis functions                  21          :
          :  # atomic orbitals                  21          :
          :  # shells                           13          :
          :  # electrons                        15          :
          :  max. iterations                   250          :
          :  Hamiltonian                  GFN2-xTB          :
          :  restarted?                      false          :
          :  GBSA solvation                  false          :
          :  PC potential                    false          :
          :  electronic temp.          300.0000000     K    :
          :  accuracy                    1.0000000          :
          :  -> integral cutoff          0.2500000E+02      :
          :  -> integral neglect         0.1000000E-07      :
          :  -> SCF convergence          0.1000000E-05 Eh   :
          :  -> wf. convergence          0.1000000E-03 e    :
          :  Broyden damping             0.4000000          :
          ...................................................

 iter      E             dE          RMSdq      gap      omega  full diag
   1     -6.1679562 -0.616796E+01  0.672E-05    1.57       0.0  T
   2     -6.1679562  0.816641E-09  0.202E-04    1.57     164.8  T
   3     -6.1679562 -0.806957E-09  0.601E-05    1.57     555.0  T

   *** convergence criteria satisfied after 3 iterations ***

         #    Occupation            Energy/Eh            Energy/eV
      -------------------------------------------------------------
         1        2.0000           -0.4281754             -11.6512
         2        2.0000           -0.4275873             -11.6352
         3        2.0000           -0.3687695             -10.0347
         4        2.0000           -0.3373443              -9.1796
         5        2.0000           -0.2793617              -7.6018
         6        2.0000           -0.2478244              -6.7436
         7        2.0000           -0.2230406              -6.0692
         8        1.0000           -0.1962727              -5.3409 (HOMO)
         9                         -0.1384792              -3.7682 (LUMO)
        10                         -0.1094747              -2.9790
        11                         -0.1040687              -2.8319
        12                         -0.0469455              -1.2775
        13                          0.0263172               0.7161
       ...                                ...                  ...
        21                          1.8353871              49.9434
      -------------------------------------------------------------
                  HL-Gap            0.0577935 Eh            1.5726 eV
             Fermi-level           -0.1885129 Eh           -5.1297 eV

 SCC (total)                   0 d,  0 h,  0 min,  0.001 sec
 SCC setup                      ...        0 min,  0.000 sec (  2.678%)
 Dispersion                     ...        0 min,  0.000 sec (  5.949%)
 classical contributions        ...        0 min,  0.000 sec (  3.863%)
 integral evaluation            ...        0 min,  0.000 sec ( 11.330%)
 iterations                     ...        0 min,  0.000 sec ( 34.511%)
 molecular gradient             ...        0 min,  0.000 sec ( 37.663%)
 printout                       ...        0 min,  0.000 sec (  3.081%)

         :::::::::::::::::::::::::::::::::::::::::::::::::::::
         ::                     SUMMARY                     ::
         :::::::::::::::::::::::::::::::::::::::::::::::::::::
         :: total energy              -6.052620088750 Eh    ::
         :: gradient norm              0.000318898541 Eh/a0 ::
         :: HOMO-LUMO gap              1.572642143288 eV    ::
         ::.................................................::
         :: SCC energy                -6.167956181280 Eh    ::
         :: -> isotropic ES           -0.029169965252 Eh    ::
         :: -> anisotropic ES          0.017464251989 Eh    ::
         :: -> anisotropic XC         -0.007287658800 Eh    ::
         :: -> dispersion             -0.003210483224 Eh    ::
         :: repulsion energy           0.115333164583 Eh    ::
         :: add. restraining           0.000000000000 Eh    ::
         :: total charge              -0.000000000000 e     ::
         :::::::::::::::::::::::::::::::::::::::::::::::::::::

           -------------------------------------------------
          |                Property Printout                |
           -------------------------------------------------

    * Orbital Energies and Occupations

         #    Occupation            Energy/Eh            Energy/eV
      -------------------------------------------------------------
         1        2.0000           -0.4281754             -11.6512
         2        2.0000           -0.4275873             -11.6352
         3        2.0000           -0.3687695             -10.0347
         4        2.0000           -0.3373443              -9.1796
         5        2.0000           -0.2793617              -7.6018
         6        2.0000           -0.2478244              -6.7436
         7        2.0000           -0.2230406              -6.0692
         8        1.0000           -0.1962727              -5.3409 (HOMO)
         9                         -0.1384792              -3.7682 (LUMO)
        10                         -0.1094747              -2.9790
        11                         -0.1040687              -2.8319
        12                         -0.0469455              -1.2775
        13                          0.0263172               0.7161
        14                          0.0555325               1.5111
        15                          0.1243232               3.3830
        16                          0.1524436               4.1482
        17                          0.3209744               8.7342
        18                          0.4120700              11.2130
        19                          0.6680405              18.1783
       ...                                ...                  ...
        21                          1.8353871              49.9434
      -------------------------------------------------------------
                  HL-Gap            0.0577935 Eh            1.5726 eV
             Fermi-level           -0.1885129 Eh           -5.1297 eV

     #   Z          covCN         q      C6AA      α(0)
     1   4 Be       1.886     0.276    16.123     9.285
     2   4 Be       2.754     0.302    15.746     9.161
     3   5 B        2.799    -0.034    22.081     7.853
     4   5 B        2.781    -0.178    24.988     8.358
     5   1 H        0.933    -0.219    12.337     5.492
     6   1 H        0.597    -0.010     3.925     3.241
     7   1 H        0.597    -0.066     5.475     3.828
     8   1 H        0.610    -0.008     3.804     3.175
     9   1 H        0.610    -0.064     5.287     3.743

 Mol. C6AA /au·bohr⁶  :        850.991372
 Mol. C8AA /au·bohr⁸  :      23415.670538
 Mol. α(0) /au        :         54.135904


Wiberg/Mayer (AO) data.
largest (>0.10) Wiberg bond orders for each atom

 ---------------------------------------------------------------------------
     #   Z sym  total        # sym  WBO       # sym  WBO       # sym  WBO
 ---------------------------------------------------------------------------
     1   4 Be   1.970 --     4 B    0.955     2 Be   0.805     3 B    0.172
     2   4 Be   2.080 --     1 Be   0.805     4 B    0.680     3 B    0.564
     3   5 B    3.414 --     4 B    1.651     5 H    0.940     2 Be   0.564
                             1 Be   0.172
     4   5 B    3.430 --     3 B    1.651     1 Be   0.955     2 Be   0.680
     5   1 H    0.952 --     3 B    0.940
     6   1 H    1.000 --     7 H    0.923
     7   1 H    0.995 --     6 H    0.923
     8   1 H    1.000 --     9 H    0.927
     9   1 H    0.995 --     8 H    0.927
 ---------------------------------------------------------------------------

Topologies differ in total number of bonds
Writing topology from bond orders to xtbtopo.mol

molecular dipole:
                 x           y           z       tot (Debye)
 q only:       -2.117       0.054      -1.373
   full:       -1.884      -0.130      -1.551       6.212
molecular quadrupole (traceless):
                xx          xy          yy          xz          yz          zz
 q only:      -19.506      -1.556      14.765     -21.503       2.351       4.741
  q+dip:      -11.352      -7.612      12.344     -23.783       2.467      -0.992
   full:      -13.822      -5.529      13.964     -23.995       1.344      -0.142

           -------------------------------------------------
          |                Geometry Summary                 |
           -------------------------------------------------

      molecular mass/u    :       44.6861260
   center of mass at/Å    :        2.9639262       0.2096748       1.7906500
  moments of inertia/u·Å² :        0.5157938E+02   0.7351539E+02   0.7844710E+02
rotational constants/cm⁻¹ :        0.3268289E+00   0.2293075E+00   0.2148917E+00

 * 6 selected distances

     #   Z          #   Z                                           value/Å
     1   4 Be       2   4 Be                                      1.9021521 (max)
     2   4 Be       3   5 B                                       1.8773550
     1   4 Be       4   5 B                                       1.7218396
     2   4 Be       4   5 B                                       1.8482856
     3   5 B        4   5 B                                       1.4939419
     3   5 B        5   1 H                                       1.1856683 (min)

 * 4 distinct bonds (by element types)

   Z      Z             #   av. dist./Å        max./Å        min./Å
   4 Be   4 Be          1     1.9021521     1.9021521     1.9021521
   1 H    5 B           1     1.1856683     1.1856683     1.1856683
   4 Be   5 B           3     1.8158268     1.8773550     1.7218396
   5 B    5 B           1     1.4939419     1.4939419     1.4939419


optimized geometry written to: xtbopt.xyz


           -------------------------------------------------
          | TOTAL ENERGY               -6.052620088750 Eh   |
          | GRADIENT NORM               0.000318898541 Eh/α |
          | HOMO-LUMO GAP               1.572642143288 eV   |
           -------------------------------------------------
########################################################################
Note: The following floating-point exceptions are signalling: IEEE_UNDERFLOW_FLAG
normal termination of xtb
[WARNING] Runtime exception occurred
-2- restart_readRestart: Dimension missmatch in restart file.
-1- restart_readRestart: Number of electron missmatch in restart file.
########################################################################

------------------------------------------------------------------------
 * finished run on 2025/06/07 at 03:27:40.656     
------------------------------------------------------------------------
 total:
 * wall-time:     0 d,  0 h,  0 min,  0.290 sec
 *  cpu-time:     0 d,  0 h,  0 min,  4.258 sec
 * ratio c/w:    14.677 speedup
 SCF:
 * wall-time:     0 d,  0 h,  0 min,  0.021 sec
 *  cpu-time:     0 d,  0 h,  0 min,  0.286 sec
 * ratio c/w:    13.825 speedup
 ANC optimizer:
 * wall-time:     0 d,  0 h,  0 min,  0.266 sec
 *  cpu-time:     0 d,  0 h,  0 min,  3.937 sec
 * ratio c/w:    14.789 speedup

