      -----------------------------------------------------------      
     |                   =====================                   |     
     |                           x T B                           |     
     |                   =====================                   |     
     |                         S. Grimme                         |     
     |          Mulliken Center for Theoretical Chemistry        |     
     |                    University of Bonn                     |     
      -----------------------------------------------------------      

   * xtb version 6.5.1 (conda-forge) compiled by 'runner@Mac-1657629245115.local' on 2022-07-12

   xtb is free software: you can redistribute it and/or modify it under
   the terms of the GNU Lesser General Public License as published by
   the Free Software Foundation, either version 3 of the License, or
   (at your option) any later version.
   
   xtb is distributed in the hope that it will be useful,
   but WITHOUT ANY WARRANTY; without even the implied warranty of
   MERCHANTABILITY or FITNESS FOR A PARTICULAR PURPOSE.  See the
   GNU Lesser General Public License for more details.
   
   Cite this work as:
   * C. Bannwarth, E. Caldeweyher, S. Ehlert, A. Hansen, P. Pracht,
     J. Seibert, S. Spicher, S. Grimme, WIREs Comput. Mol. Sci., 2020, 11,
     e01493. DOI: 10.1002/wcms.1493
   
   for GFN2-xTB:
   * C. Bannwarth, S. Ehlert and S. Grimme., J. Chem. Theory Comput., 2019,
     15, 1652-1671. DOI: 10.1021/acs.jctc.8b01176
   for GFN1-xTB:
   * S. Grimme, C. Bannwarth, P. Shushkov, J. Chem. Theory Comput., 2017,
     13, 1989-2009. DOI: 10.1021/acs.jctc.7b00118
   for GFN0-xTB:
   * P. Pracht, E. Caldeweyher, S. Ehlert, S. Grimme, ChemRxiv, 2019, preprint.
     DOI: 10.26434/chemrxiv.8326202.v1
   for GFN-FF:
   * S. Spicher and S. Grimme, Angew. Chem. Int. Ed., 2020, 59, 15665-15673.
     DOI: 10.1002/anie.202004239
   
   for ALPB and GBSA implicit solvation:
   * S. Ehlert, M. Stahn, S. Spicher, S. Grimme, J. Chem. Theory Comput.,
     2021, 17, 4250-4261. DOI: 10.1021/acs.jctc.1c00471
   
   for DFT-D4:
   * E. Caldeweyher, C. Bannwarth and S. Grimme, J. Chem. Phys., 2017,
     147, 034112. DOI: 10.1063/1.4993215
   * E. Caldeweyher, S. Ehlert, A. Hansen, H. Neugebauer, S. Spicher,
     C. Bannwarth and S. Grimme, J. Chem. Phys., 2019, 150, 154122.
     DOI: 10.1063/1.5090222
   * E. Caldeweyher, J.-M. Mewes, S. Ehlert and S. Grimme, Phys. Chem. Chem. Phys.
     2020, 22, 8499-8512. DOI: 10.1039/D0CP00502A
   
   for sTDA-xTB:
   * S. Grimme and C. Bannwarth, J. Chem. Phys., 2016, 145, 054103.
     DOI: 10.1063/1.4959605
   
   in the mass-spec context:
   * V. Asgeirsson, C. Bauer and S. Grimme, Chem. Sci., 2017, 8, 4879.
     DOI: 10.1039/c7sc00601b
   * J. Koopman and S. Grimme, ACS Omega 2019, 4, 12, 15120-15133.
     DOI: 10.1021/acsomega.9b02011
   
   for metadynamics refer to:
   * S. Grimme, J. Chem. Theory Comput., 2019, 155, 2847-2862
     DOI: 10.1021/acs.jctc.9b00143
   
   for SPH calculations refer to:
   * S. Spicher and S. Grimme, J. Chem. Theory Comput., 2021, 17, 1701-1714
     DOI: 10.1021/acs.jctc.0c01306
   
   with help from (in alphabetical order)
   P. Atkinson, C. Bannwarth, F. Bohle, G. Brandenburg, E. Caldeweyher
   M. Checinski, S. Dohm, S. Ehlert, S. Ehrlich, I. Gerasimov, C. Hölzer
   A. Katbashev, J. Koopman, C. Lavigne, S. Lehtola, F. März, M. Müller,
   F. Musil, H. Neugebauer, J. Pisarek, C. Plett, P. Pracht, F. Pultar,
   J. Seibert, P. Shushkov, S. Spicher, M. Stahn, M. Steiner, T. Strunk,
   J. Stückrath, T. Rose, and J. Unsleber
   
 * started run on 2025/06/07 at 03:27:42.469     

           -------------------------------------------------
          |                Calculation Setup                |
           -------------------------------------------------

          program call               : xtb B2BeC4H5.xyz --gfn 2 --opt
          coordinate file            : B2BeC4H5.xyz
          omp threads                :                    16

   ID    Z sym.   atoms
    1    4 Be     1
    2    5 B      2, 3
    3    6 C      4-7
    4    1 H      8-12

molecular fragmentation (1/2 indicates fragments):
111222222222
# atoms in fragment 1/2:     3     9
 fragment masses (1/2) :       30.63       53.08
CMA distance (Bohr)    :   6.462
constraining FC (au)   :  0.0500

           -------------------------------------------------
          |                 G F N 2 - x T B                 |
           -------------------------------------------------

        Reference                      10.1021/acs.jctc.8b01176
      * Hamiltonian:
        H0-scaling (s, p, d)           1.850000    2.230000    2.230000
        zeta-weighting                 0.500000
      * Dispersion:
        s8                             2.700000
        a1                             0.520000
        a2                             5.000000
        s9                             5.000000
      * Repulsion:
        kExp                           1.500000    1.000000
        rExp                           1.000000
      * Coulomb:
        alpha                          2.000000
        third order                    shell-resolved
        anisotropic                    true
        a3                             3.000000
        a5                             4.000000
        cn-shift                       1.200000
        cn-exp                         4.000000
        max-rad                        5.000000


          ...................................................
          :                      SETUP                      :
          :.................................................:
          :  # basis functions                  33          :
          :  # atomic orbitals                  33          :
          :  # shells                           19          :
          :  # electrons                        29          :
          :  max. iterations                   250          :
          :  Hamiltonian                  GFN2-xTB          :
          :  restarted?                      false          :
          :  GBSA solvation                  false          :
          :  PC potential                    false          :
          :  electronic temp.          300.0000000     K    :
          :  accuracy                    1.0000000          :
          :  -> integral cutoff          0.2500000E+02      :
          :  -> integral neglect         0.1000000E-07      :
          :  -> SCF convergence          0.1000000E-05 Eh   :
          :  -> wf. convergence          0.1000000E-03 e    :
          :  Broyden damping             0.4000000          :
          ...................................................

 iter      E             dE          RMSdq      gap      omega  full diag
   1      7.3986846  0.739868E+01  0.217E+01    0.41       0.0  T
   2     -6.4872864 -0.138860E+02  0.229E+01    0.60       1.0  T
   3     -6.5267790 -0.394926E-01  0.172E+01    0.35       1.0  T
   4     -6.2086159  0.318163E+00  0.176E+01    1.00       1.0  T
   5     -6.5095075 -0.300892E+00  0.130E+01    1.03       1.0  T
   6     -3.1970238  0.331248E+01  0.217E+01    0.40       1.0  T
   7    -10.8457668 -0.764874E+01  0.116E+01    0.36       1.0  T
   8    -10.9253852 -0.796184E-01  0.116E+01    0.34       1.0  T
   9    -10.6245753  0.300810E+00  0.110E+01    0.33       1.0  T
  10     -6.2081780  0.441640E+01  0.150E+01    0.24       1.0  T
  11    -12.4132806 -0.620510E+01  0.701E+00    0.25       1.0  T
  12    -10.4742576  0.193902E+01  0.115E+01    0.29       1.0  T
  13     -9.4217932  0.105246E+01  0.122E+01    0.25       1.0  T
  14    -11.8236126 -0.240182E+01  0.894E+00    0.22       1.0  T
  15     -1.8864445  0.993717E+01  0.138E+01    0.20       1.0  T
  16    -12.5757787 -0.106893E+02  0.510E+00    0.54       1.0  T
  17    -12.7665354 -0.190757E+00  0.497E+00    0.52       1.0  T
  18    -12.7879973 -0.214618E-01  0.519E+00    0.53       1.0  T
  19    -12.5223570  0.265640E+00  0.445E+00    0.56       1.0  T
  20    -12.2524699  0.269887E+00  0.461E+00    0.41       1.0  T
  21    -12.7577221 -0.505252E+00  0.341E+00    0.43       1.0  T
  22    -12.4989437  0.258778E+00  0.399E+00    0.43       1.0  T
  23    -12.5824045 -0.834608E-01  0.403E+00    0.45       1.0  T
  24    -12.6860310 -0.103627E+00  0.369E+00    0.44       1.0  T
  25    -12.7627466 -0.767156E-01  0.346E+00    0.44       1.0  T
  26    -12.8157584 -0.530118E-01  0.332E+00    0.44       1.0  T
  27    -12.8587658 -0.430074E-01  0.303E+00    0.43       1.0  T
  28    -12.9899558 -0.131190E+00  0.261E+00    0.42       1.0  T
  29    -12.9637289  0.262269E-01  0.260E+00    0.42       1.0  T
  30    -13.0080302 -0.443013E-01  0.232E+00    0.42       1.0  T
  31    -13.0257743 -0.177441E-01  0.216E+00    0.42       1.0  T
  32    -13.0276142 -0.183990E-02  0.192E+00    0.42       1.0  T
  33    -13.0265023  0.111195E-02  0.155E+00    0.42       1.0  T
  34    -13.0231746  0.332765E-02  0.130E+00    0.42       1.0  T
  35    -13.0500534 -0.268788E-01  0.112E+00    0.41       1.0  T
  36    -13.0660731 -0.160197E-01  0.104E+00    0.41       1.0  T
  37    -13.0706650 -0.459189E-02  0.102E+00    0.41       1.0  T
  38    -13.0765796 -0.591454E-02  0.977E-01    0.41       1.0  T
  39    -13.0922794 -0.156999E-01  0.913E-01    0.40       1.0  T
  40    -13.0935192 -0.123973E-02  0.890E-01    0.40       1.0  T
  41    -13.0971736 -0.365439E-02  0.738E-01    0.40       1.0  T
  42    -13.0973941 -0.220578E-03  0.694E-01    0.40       1.0  T
  43    -13.0979989 -0.604717E-03  0.615E-01    0.40       1.0  T
  44    -13.0988012 -0.802375E-03  0.584E-01    0.40       1.0  T
  45    -13.1012130 -0.241175E-02  0.491E-01    0.40       1.0  T
  46    -13.1045259 -0.331287E-02  0.367E-01    0.40       1.0  T
  47    -13.1074750 -0.294916E-02  0.212E-01    0.40       1.0  T
  48    -13.1083307 -0.855728E-03  0.127E-01    0.40       1.0  T
  49    -13.1083905 -0.597490E-04  0.867E-02    0.40       1.0  T
  50    -13.1083862  0.426641E-05  0.620E-02    0.40       1.0  T
  51    -13.1083231  0.630969E-04  0.748E-02    0.40       1.0  T
  52    -13.1083355 -0.123448E-04  0.633E-02    0.40       1.0  T
  53    -13.1084012 -0.656846E-04  0.462E-02    0.40       1.0  T
  54    -13.1084152 -0.139885E-04  0.386E-02    0.40       1.0  T
  55    -13.1084313 -0.161802E-04  0.289E-02    0.40       1.0  T
  56    -13.1084423 -0.109886E-04  0.215E-02    0.40       1.3  T
  57    -13.1084493 -0.697663E-05  0.120E-02    0.40       2.4  T
  58    -13.1084504 -0.106103E-05  0.557E-03    0.40       5.2  T
  59    -13.1084504 -0.226124E-08  0.208E-03    0.40      13.9  T
  60    -13.1084504 -0.529675E-07  0.160E-03    0.40      18.1  T
  61    -13.1084505 -0.380142E-07  0.105E-03    0.40      27.6  T
  62    -13.1084505 -0.670969E-08  0.618E-04    0.40      46.7  T
  63    -13.1084505 -0.540664E-09  0.368E-04    0.40      78.5  T

   *** convergence criteria satisfied after 63 iterations ***

         #    Occupation            Energy/Eh            Energy/eV
      -------------------------------------------------------------
         1        2.0000           -0.5910570             -16.0835
       ...           ...                  ...                  ...
         9        2.0000           -0.3614521              -9.8356
        10        2.0000           -0.3405897              -9.2679
        11        2.0000           -0.3377013              -9.1893
        12        2.0000           -0.3312689              -9.0143
        13        2.0000           -0.3108774              -8.4594
        14        1.9774           -0.2988479              -8.1321
        15        1.0220           -0.2916872              -7.9372 (HOMO)
        16        0.0004           -0.2770275              -7.5383 (LUMO)
        17        0.0002           -0.2763027              -7.5186
        18                         -0.2660185              -7.2387
        19                         -0.2496588              -6.7936
        20                         -0.2435100              -6.6262
       ...                                ...                  ...
        33                          0.6316619              17.1884
      -------------------------------------------------------------
                  HL-Gap            0.0146597 Eh            0.3989 eV
             Fermi-level           -0.2899033 Eh           -7.8887 eV

 SCC (total)                   0 d,  0 h,  0 min,  0.020 sec
 SCC setup                      ...        0 min,  0.000 sec (  0.297%)
 Dispersion                     ...        0 min,  0.000 sec (  0.717%)
 classical contributions        ...        0 min,  0.000 sec (  0.279%)
 integral evaluation            ...        0 min,  0.000 sec (  1.275%)
 iterations                     ...        0 min,  0.019 sec ( 93.932%)
 molecular gradient             ...        0 min,  0.001 sec (  3.124%)
 printout                       ...        0 min,  0.000 sec (  0.303%)

         :::::::::::::::::::::::::::::::::::::::::::::::::::::
         ::                     SUMMARY                     ::
         :::::::::::::::::::::::::::::::::::::::::::::::::::::
         :: total energy             -13.032064760686 Eh    ::
         :: gradient norm              0.330439461387 Eh/a0 ::
         :: HOMO-LUMO gap              0.398910021294 eV    ::
         ::.................................................::
         :: SCC energy               -13.108450459833 Eh    ::
         :: -> isotropic ES           -0.074422742730 Eh    ::
         :: -> anisotropic ES          0.014250645768 Eh    ::
         :: -> anisotropic XC         -0.014616178458 Eh    ::
         :: -> dispersion             -0.009689517843 Eh    ::
         :: repulsion energy           0.076400111824 Eh    ::
         :: add. restraining           0.000000000000 Eh    ::
         :: total charge              -0.000000000005 e     ::
         :::::::::::::::::::::::::::::::::::::::::::::::::::::

      ----------------------------------------------------------- 
     |                   =====================                   |
     |                        A N C O P T                        |
     |                   =====================                   |
     |               Approximate Normal Coordinate               |
     |                Rational Function Optimizer                |
      ----------------------------------------------------------- 

          ...................................................
          :                      SETUP                      :
          :.................................................:
          :   optimization level            normal          :
          :   max. optcycles                   200          :
          :   ANC micro-cycles                  20          :
          :   degrees of freedom                30          :
          :.................................................:
          :   RF solver                   davidson          :
          :   write xtbopt.log                true          :
          :   linear?                        false          :
          :   energy convergence         0.5000000E-05 Eh   :
          :   grad. convergence          0.1000000E-02 Eh/α :
          :   maximium RF displ.         1.0000000          :
          :   Hlow (freq-cutoff)         0.1000000E-01      :
          :   Hmax (freq-cutoff)         5.0000000          :
          :   S6 in model hess.         20.0000000          :
          ...................................................

generating ANC from model Hessian ...
Using Lindh-Hessian (1995)
 Shifting diagonal of input Hessian by    2.1883227865354446E-002
 Lowest  eigenvalues of input Hessian
    0.010000    0.020106    0.000000    0.000000    0.000000    0.000000
    0.000000    0.000000    0.021891    0.022018    0.022106    0.022331
    0.022900    0.023081    0.023373    0.023786    0.024997    0.026389
 Highest eigenvalues
    0.245004    0.271760    0.302545    0.356224    0.386530    0.421015


........................................................................
.............................. CYCLE    1 ..............................
........................................................................
   1    -13.1084505 -0.131085E+02  0.203E-04    0.40       0.0  T
   2    -13.1084504  0.169667E-07  0.886E-04    0.40      32.6  T
   3    -13.1084504  0.626199E-08  0.101E-03    0.40      28.6  T
   4    -13.1084504  0.362017E-08  0.107E-03    0.40      27.0  T
   5    -13.1084505 -0.200560E-07  0.523E-04    0.40      55.2  T
     SCC iter.                  ...        0 min,  0.001 sec
     gradient                   ...        0 min,  0.001 sec
 * total energy  :   -13.0320648 Eh     change        0.6143047E-08 Eh
   gradient norm :     0.3303300 Eh/α   predicted     0.0000000E+00 (-100.00%)
   displ. norm   :     0.7695491 α      lambda       -0.2455360E+00
   maximum displ.:     0.4995252 α      in ANC's #22, #21, #1, ...

........................................................................
.............................. CYCLE    2 ..............................
........................................................................
   1    -13.2993449 -0.132993E+02  0.212E+00    0.43       0.0  T
   2    -12.4454023  0.853943E+00  0.589E+00    0.22       1.0  T
   3    -13.2065329 -0.761131E+00  0.243E+00    0.53       1.0  T
   4    -13.1553118  0.512211E-01  0.216E+00    0.28       1.0  T
   5    -13.1620685 -0.675673E-02  0.265E+00    0.51       1.0  T
   6    -13.2392703 -0.772018E-01  0.184E+00    0.49       1.0  T
   7    -13.2641587 -0.248884E-01  0.146E+00    0.48       1.0  T
   8    -13.3089942 -0.448355E-01  0.781E-01    0.43       1.0  T
   9    -13.3192132 -0.102190E-01  0.540E-01    0.39       1.0  T
  10    -13.3231381 -0.392493E-02  0.320E-01    0.37       1.0  T
  11    -13.3232615 -0.123374E-03  0.293E-01    0.35       1.0  T
  12    -13.3243342 -0.107268E-02  0.158E-01    0.34       1.0  T
  13    -13.3245144 -0.180262E-03  0.860E-02    0.35       1.0  T
  14    -13.3244569  0.575071E-04  0.113E-01    0.35       1.0  T
  15    -13.3245643 -0.107371E-03  0.551E-02    0.35       1.0  T
  16    -13.3245601  0.419069E-05  0.418E-02    0.35       1.0  T
  17    -13.3245687 -0.861736E-05  0.221E-02    0.35       1.3  T
  18    -13.3245763 -0.753890E-05  0.927E-03    0.35       3.1  T
  19    -13.3245763 -0.514875E-07  0.231E-03    0.35      12.5  T
  20    -13.3245764 -0.229066E-07  0.193E-03    0.35      15.0  T
  21    -13.3245764 -0.790567E-08  0.433E-04    0.35      66.6  T
  22    -13.3245764 -0.800576E-09  0.654E-05    0.35     441.3  T
     SCC iter.                  ...        0 min,  0.004 sec
     gradient                   ...        0 min,  0.000 sec
 * total energy  :   -13.2564040 Eh     change       -0.2243392E+00 Eh
   gradient norm :     0.3004374 Eh/α   predicted    -0.1954720E+00 ( -12.87%)
   displ. norm   :     0.9599128 α      lambda       -0.2868399E+00
   maximum displ.:     0.7926689 α      in ANC's #22, #30, #29, ...

........................................................................
.............................. CYCLE    3 ..............................
........................................................................
   1    -13.6236842 -0.136237E+02  0.318E+00    0.10       0.0  T
   2    -13.3188236  0.304861E+00  0.475E+00    0.13       1.0  T
   3    -13.6564187 -0.337595E+00  0.191E+00    0.15       1.0  T
   4    -13.2866748  0.369744E+00  0.466E+00    0.19       1.0  T
   5    -13.5955622 -0.308887E+00  0.189E+00    0.58       1.0  T
   6    -13.6057676 -0.102054E-01  0.157E+00    0.15       1.0  T
   7    -13.6583014 -0.525338E-01  0.708E-01    0.16       1.0  T
   8    -13.6637899 -0.548852E-02  0.523E-01    0.15       1.0  T
   9    -13.6656156 -0.182568E-02  0.384E-01    0.16       1.0  T
  10    -13.6655240  0.916192E-04  0.325E-01    0.14       1.0  T
  11    -13.6666532 -0.112920E-02  0.148E-01    0.12       1.0  T
  12    -13.6671391 -0.485926E-03  0.816E-02    0.13       1.0  T
  13    -13.6671246  0.145149E-04  0.657E-02    0.13       1.0  T
  14    -13.6671014  0.232213E-04  0.743E-02    0.13       1.0  T
  15    -13.6671396 -0.382446E-04  0.553E-02    0.13       1.0  T
  16    -13.6671506 -0.109383E-04  0.417E-02    0.13       1.0  T
  17    -13.6671584 -0.779961E-05  0.279E-02    0.13       1.0  T
  18    -13.6671664 -0.806254E-05  0.173E-02    0.13       1.7  T
  19    -13.6671708 -0.435830E-05  0.798E-03    0.13       3.6  T
  20    -13.6671717 -0.883118E-06  0.277E-03    0.13      10.4  T
  21    -13.6671718 -0.821450E-07  0.148E-03    0.13      19.5  T
  22    -13.6671718 -0.261510E-07  0.510E-04    0.13      56.6  T
  23    -13.6671718 -0.169121E-08  0.136E-04    0.13     212.8  T
     SCC iter.                  ...        0 min,  0.005 sec
     gradient                   ...        0 min,  0.001 sec
 * total energy  :   -13.5076974 Eh     change       -0.2512935E+00 Eh
   gradient norm :     0.2474746 Eh/α   predicted    -0.2755717E+00 (   9.66%)
   displ. norm   :     0.8653773 α      lambda       -0.2030219E+00
   maximum displ.:     0.7048188 α      in ANC's #22, #29, #17, ...

........................................................................
.............................. CYCLE    4 ..............................
........................................................................
   1    -13.8691336 -0.138691E+02  0.342E+00    0.10       0.0  T
   2    -13.5395792  0.329554E+00  0.428E+00    1.27       1.0  T
   3    -13.7063152 -0.166736E+00  0.326E+00    0.21       1.0  T
   4    -13.7663729 -0.600577E-01  0.337E+00    0.18       1.0  T
   5    -13.9420509 -0.175678E+00  0.166E+00    0.43       1.0  T
   6    -13.9101724  0.318785E-01  0.163E+00    0.19       1.0  T
   7    -13.9568455 -0.466731E-01  0.103E+00    0.34       1.0  T
   8    -13.9605853 -0.373982E-02  0.780E-01    0.38       1.0  T
   9    -13.9634066 -0.282125E-02  0.540E-01    0.32       1.0  T
  10    -13.9659237 -0.251712E-02  0.336E-01    0.34       1.0  T
  11    -13.9671508 -0.122707E-02  0.168E-01    0.33       1.0  T
  12    -13.9673573 -0.206516E-03  0.126E-01    0.33       1.0  T
  13    -13.9676189 -0.261571E-03  0.480E-02    0.33       1.0  T
  14    -13.9676485 -0.296604E-04  0.170E-02    0.33       1.7  T
  15    -13.9676504 -0.183023E-05  0.102E-02    0.33       2.8  T
  16    -13.9676509 -0.500777E-06  0.454E-03    0.33       6.4  T
  17    -13.9676508  0.223730E-07  0.173E-03    0.33      16.6  T
  18    -13.9676509 -0.721639E-07  0.558E-04    0.33      51.7  T
  19    -13.9676509 -0.709683E-09  0.232E-04    0.33     124.3  T
     SCC iter.                  ...        0 min,  0.004 sec
     gradient                   ...        0 min,  0.001 sec
 * total energy  :   -13.6002673 Eh     change       -0.9256991E-01 Eh
   gradient norm :     0.2921151 Eh/α   predicted    -0.1775302E+00 (  91.78%)
   displ. norm   :     0.6132921 α      lambda       -0.1339079E+00
   maximum displ.:     0.2204379 α      in ANC's #12, #29, #10, ...

........................................................................
.............................. CYCLE    5 ..............................
........................................................................
   1    -13.9841888 -0.139842E+02  0.219E+00    0.94       0.0  T
   2    -13.9701151  0.140737E-01  0.170E+00    1.04       1.0  T
   3    -13.8862030  0.839121E-01  0.224E+00    0.79       1.0  T
   4    -13.8649081  0.212949E-01  0.203E+00    1.04       1.0  T
   5    -13.9638682 -0.989601E-01  0.106E+00    0.98       1.0  T
   6    -13.9861581 -0.222899E-01  0.575E-01    0.91       1.0  T
   7    -13.9897280 -0.356994E-02  0.343E-01    0.97       1.0  T
   8    -13.9914377 -0.170972E-02  0.285E-01    0.96       1.0  T
   9    -13.9918067 -0.369006E-03  0.202E-01    0.96       1.0  T
  10    -13.9921066 -0.299843E-03  0.196E-01    0.98       1.0  T
  11    -13.9922812 -0.174580E-03  0.482E-02    0.97       1.0  T
  12    -13.9922846 -0.345894E-05  0.319E-02    0.97       1.0  T
  13    -13.9922919 -0.726566E-05  0.591E-03    0.97       4.9  T
  14    -13.9922920 -0.129480E-06  0.238E-03    0.97      12.1  T
  15    -13.9922921 -0.711236E-07  0.104E-03    0.97      27.8  T
  16    -13.9922921 -0.188194E-07  0.402E-04    0.97      71.9  T
  17    -13.9922921 -0.251504E-08  0.508E-05    0.97     568.5  T
     SCC iter.                  ...        0 min,  0.004 sec
     gradient                   ...        0 min,  0.001 sec
 * total energy  :   -13.6231064 Eh     change       -0.2283905E-01 Eh
   gradient norm :     0.3472453 Eh/α   predicted    -0.9213716E-01 ( 303.42%)
   displ. norm   :     0.5956889 α      lambda       -0.1402756E+00
   maximum displ.:     0.2814720 α      in ANC's #13, #22, #16, ...

........................................................................
.............................. CYCLE    6 ..............................
........................................................................
   1    -13.8990566 -0.138991E+02  0.245E+00    0.59       0.0  T
   2    -13.4902842  0.408772E+00  0.428E+00    0.10       1.0  T
   3    -13.8708180 -0.380534E+00  0.180E+00    0.67       1.0  T
   4    -13.6303397  0.240478E+00  0.337E+00    0.39       1.0  T
   5    -13.8832191 -0.252879E+00  0.118E+00    0.24       1.0  T
   6    -13.9175229 -0.343037E-01  0.845E-01    0.51       1.0  T
   7    -13.9263253 -0.880241E-02  0.463E-01    0.40       1.0  T
   8    -13.9265936 -0.268304E-03  0.427E-01    0.41       1.0  T
   9    -13.9269396 -0.346029E-03  0.286E-01    0.37       1.0  T
  10    -13.9274329 -0.493290E-03  0.145E-01    0.38       1.0  T
  11    -13.9276838 -0.250888E-03  0.960E-02    0.37       1.0  T
  12    -13.9277966 -0.112812E-03  0.732E-02    0.36       1.0  T
  13    -13.9278324 -0.358343E-04  0.190E-02    0.36       1.5  T
  14    -13.9278344 -0.201320E-05  0.171E-02    0.35       1.7  T
  15    -13.9278372 -0.277988E-05  0.405E-03    0.36       7.1  T
  16    -13.9278373 -0.127940E-06  0.239E-03    0.36      12.1  T
  17    -13.9278374 -0.602683E-07  0.449E-04    0.36      64.2  T
  18    -13.9278374 -0.247662E-08  0.109E-04    0.36     264.7  T
     SCC iter.                  ...        0 min,  0.004 sec
     gradient                   ...        0 min,  0.000 sec
 * total energy  :   -13.6425243 Eh     change       -0.1941787E-01 Eh
   gradient norm :     0.2102915 Eh/α   predicted    -0.9502581E-01 ( 389.37%)
   displ. norm   :     0.5515886 α      lambda       -0.8095064E-01
   maximum displ.:     0.2238706 α      in ANC's #11, #2, #21, ...

........................................................................
.............................. CYCLE    7 ..............................
........................................................................
   1    -13.9555298 -0.139555E+02  0.161E+00    0.39       0.0  T
   2    -13.8831417  0.723881E-01  0.202E+00    0.71       1.0  T
   3    -13.9223454 -0.392037E-01  0.162E+00    0.37       1.0  T
   4    -13.8872754  0.350700E-01  0.165E+00    0.40       1.0  T
   5    -13.9637303 -0.764549E-01  0.521E-01    0.49       1.0  T
   6    -13.9658550 -0.212475E-02  0.231E-01    0.41       1.0  T
   7    -13.9663756 -0.520566E-03  0.238E-01    0.44       1.0  T
   8    -13.9664031 -0.275091E-04  0.240E-01    0.44       1.0  T
   9    -13.9663889  0.142564E-04  0.723E-02    0.43       1.0  T
  10    -13.9664578 -0.689368E-04  0.505E-02    0.44       1.0  T
  11    -13.9664750 -0.172453E-04  0.396E-02    0.44       1.0  T
  12    -13.9664884 -0.133086E-04  0.202E-02    0.44       1.4  T
  13    -13.9664974 -0.899852E-05  0.299E-03    0.44       9.7  T
  14    -13.9664974 -0.787649E-07  0.262E-03    0.44      11.0  T
  15    -13.9664974 -0.149813E-07  0.557E-04    0.44      51.8  T
  16    -13.9664974  0.449045E-10  0.235E-04    0.44     122.7  T
     SCC iter.                  ...        0 min,  0.004 sec
     gradient                   ...        0 min,  0.000 sec
 * total energy  :   -13.6840014 Eh     change       -0.4147717E-01 Eh
   gradient norm :     0.1188666 Eh/α   predicted    -0.5278993E-01 (  27.27%)
   displ. norm   :     0.5961752 α      lambda       -0.4641363E-01
   maximum displ.:     0.2721372 α      in ANC's #3, #22, #29, ...

........................................................................
.............................. CYCLE    8 ..............................
........................................................................
   1    -14.0418989 -0.140419E+02  0.169E+00    0.60       0.0  T
   2    -13.9571490  0.847499E-01  0.222E+00    0.83       1.0  T
   3    -14.0310899 -0.739410E-01  0.134E+00    0.53       1.0  T
   4    -14.0075034  0.235866E-01  0.149E+00    0.79       1.0  T
   5    -14.0524568 -0.449534E-01  0.517E-01    0.67       1.0  T
   6    -14.0572507 -0.479389E-02  0.208E-01    0.61       1.0  T
   7    -14.0576129 -0.362194E-03  0.183E-01    0.62       1.0  T
   8    -14.0572531  0.359831E-03  0.176E-01    0.61       1.0  T
   9    -14.0575372 -0.284148E-03  0.107E-01    0.62       1.0  T
  10    -14.0577004 -0.163148E-03  0.184E-02    0.61       1.6  T
  11    -14.0576995  0.855093E-06  0.124E-02    0.61       2.3  T
  12    -14.0577024 -0.284871E-05  0.421E-03    0.61       6.9  T
  13    -14.0577026 -0.223509E-06  0.167E-03    0.61      17.3  T
  14    -14.0577026 -0.404046E-07  0.404E-04    0.61      71.5  T
  15    -14.0577026 -0.222621E-08  0.179E-04    0.61     161.6  T
     SCC iter.                  ...        0 min,  0.003 sec
     gradient                   ...        0 min,  0.001 sec
 * total energy  :   -13.7103585 Eh     change       -0.2635711E-01 Eh
   gradient norm :     0.1335247 Eh/α   predicted    -0.3145511E-01 (  19.34%)
   displ. norm   :     0.7309173 α      lambda       -0.5585417E-01
   maximum displ.:     0.2751733 α      in ANC's #9, #10, #29, ...

........................................................................
.............................. CYCLE    9 ..............................
........................................................................
   1    -14.1610759 -0.141611E+02  0.272E+00    1.32       0.0  T
   2    -14.0733060  0.877699E-01  0.250E+00    1.25       1.0  T
   3    -14.0567063  0.165997E-01  0.260E+00    1.22       1.0  T
   4    -14.0742228 -0.175165E-01  0.244E+00    1.35       1.0  T
   5    -14.1837807 -0.109558E+00  0.709E-01    1.19       1.0  T
   6    -14.1864786 -0.269795E-02  0.363E-01    1.22       1.0  T
   7    -14.1884006 -0.192193E-02  0.267E-01    1.22       1.0  T
   8    -14.1885104 -0.109862E-03  0.225E-01    1.21       1.0  T
   9    -14.1885881 -0.776491E-04  0.770E-02    1.22       1.0  T
  10    -14.1886299 -0.418627E-04  0.307E-02    1.22       1.0  T
  11    -14.1886401 -0.101815E-04  0.177E-02    1.21       1.6  T
  12    -14.1886427 -0.255760E-05  0.485E-03    1.21       6.0  T
  13    -14.1886426  0.278180E-07  0.352E-03    1.21       8.2  T
  14    -14.1886429 -0.255553E-06  0.460E-04    1.21      62.7  T
  15    -14.1886429 -0.157821E-08  0.219E-04    1.21     131.6  T
     SCC iter.                  ...        0 min,  0.003 sec
     gradient                   ...        0 min,  0.001 sec
 * total energy  :   -13.6980198 Eh     change        0.1233874E-01 Eh
   gradient norm :     0.4261738 Eh/α   predicted    -0.4284684E-01 (-447.25%)
   displ. norm   :     0.3926828 α      lambda       -0.1042698E+00
   maximum displ.:     0.2130144 α      in ANC's #10, #2, #26, ...

........................................................................
.............................. CYCLE   10 ..............................
........................................................................
   1    -14.0641438 -0.140641E+02  0.130E+00    1.12       0.0  T
   2    -13.9776493  0.864945E-01  0.226E+00    1.14       1.0  T
   3    -14.0732846 -0.956353E-01  0.694E-01    1.11       1.0  T
   4    -14.0571926  0.160920E-01  0.941E-01    1.07       1.0  T
   5    -14.0674801 -0.102875E-01  0.616E-01    1.10       1.0  T
   6    -14.0763289 -0.884878E-02  0.284E-01    1.10       1.0  T
   7    -14.0775453 -0.121637E-02  0.794E-02    1.09       1.0  T
   8    -14.0775448  0.459099E-06  0.713E-02    1.10       1.0  T
   9    -14.0775528 -0.804392E-05  0.590E-02    1.09       1.0  T
  10    -14.0775995 -0.467134E-04  0.104E-02    1.10       2.8  T
  11    -14.0776004 -0.842672E-06  0.491E-03    1.10       5.9  T
  12    -14.0776007 -0.263114E-06  0.147E-03    1.10      19.6  T
  13    -14.0776007 -0.994785E-08  0.881E-04    1.10      32.8  T
  14    -14.0776007 -0.134328E-07  0.120E-04    1.10     239.7  T
     SCC iter.                  ...        0 min,  0.004 sec
     gradient                   ...        0 min,  0.000 sec
 * total energy  :   -13.7422957 Eh     change       -0.4427589E-01 Eh
   gradient norm :     0.0941626 Eh/α   predicted    -0.6017406E-01 (  35.91%)
   displ. norm   :     0.5618406 α      lambda       -0.2587393E-01
   maximum displ.:     0.2339757 α      in ANC's #2, #3, #10, ...

........................................................................
.............................. CYCLE   11 ..............................
........................................................................
   1    -14.0898255 -0.140898E+02  0.123E+00    1.17       0.0  T
   2    -14.0678166  0.220089E-01  0.132E+00    1.22       1.0  T
   3    -14.0792106 -0.113939E-01  0.105E+00    1.18       1.0  T
   4    -14.0926529 -0.134424E-01  0.248E-01    1.17       1.0  T
   5    -14.0934638 -0.810854E-03  0.107E-01    1.18       1.0  T
   6    -14.0935374 -0.736347E-04  0.735E-02    1.18       1.0  T
   7    -14.0934989  0.385246E-04  0.621E-02    1.18       1.0  T
   8    -14.0934080  0.908461E-04  0.779E-02    1.18       1.0  T
   9    -14.0935552 -0.147134E-03  0.290E-02    1.18       1.0  T
  10    -14.0935702 -0.150098E-04  0.733E-03    1.18       3.9  T
  11    -14.0935702 -0.252378E-07  0.593E-03    1.18       4.9  T
  12    -14.0935708 -0.585134E-06  0.101E-03    1.18      28.5  T
  13    -14.0935708  0.214208E-08  0.646E-04    1.18      44.7  T
  14    -14.0935708 -0.663126E-08  0.129E-04    1.18     223.7  T
     SCC iter.                  ...        0 min,  0.003 sec
     gradient                   ...        0 min,  0.000 sec
 * total energy  :   -13.7549061 Eh     change       -0.1261038E-01 Eh
   gradient norm :     0.0851821 Eh/α   predicted    -0.1702071E-01 (  34.97%)
   displ. norm   :     0.6313647 α      lambda       -0.2783173E-01
   maximum displ.:     0.3319796 α      in ANC's #10, #3, #1, ...

........................................................................
.............................. CYCLE   12 ..............................
........................................................................
   1    -14.1079397 -0.141079E+02  0.135E+00    1.57       0.0  T
   2    -14.0999786  0.796103E-02  0.992E-01    1.47       1.0  T
   3    -14.0334928  0.664858E-01  0.177E+00    1.67       1.0  T
   4    -14.1023994 -0.689066E-01  0.674E-01    1.55       1.0  T
   5    -14.1041203 -0.172091E-02  0.528E-01    1.58       1.0  T
   6    -14.1076519 -0.353156E-02  0.272E-01    1.57       1.0  T
   7    -14.1083030 -0.651127E-03  0.237E-01    1.56       1.0  T
   8    -14.1085261 -0.223136E-03  0.160E-01    1.56       1.0  T
   9    -14.1088837 -0.357520E-03  0.479E-02    1.56       1.0  T
  10    -14.1089180 -0.343695E-04  0.156E-02    1.55       1.9  T
  11    -14.1089190 -0.976935E-06  0.119E-02    1.55       2.4  T
  12    -14.1089194 -0.340349E-06  0.187E-03    1.55      15.4  T
  13    -14.1089193  0.127858E-07  0.129E-03    1.55      22.3  T
  14    -14.1089194 -0.115854E-07  0.678E-04    1.55      42.6  T
  15    -14.1089194 -0.768128E-08  0.226E-04    1.55     127.8  T
     SCC iter.                  ...        0 min,  0.003 sec
     gradient                   ...        0 min,  0.001 sec
 * total energy  :   -13.7688428 Eh     change       -0.1393672E-01 Eh
   gradient norm :     0.0795639 Eh/α   predicted    -0.1946300E-01 (  39.65%)
   displ. norm   :     0.7245712 α      lambda       -0.2883413E-01
   maximum displ.:     0.3606286 α      in ANC's #13, #10, #3, ...

........................................................................
.............................. CYCLE   13 ..............................
........................................................................
   1    -14.1196059 -0.141196E+02  0.202E+00    2.25       0.0  T
   2    -14.1046347  0.149712E-01  0.203E+00    2.04       1.0  T
   3    -14.0952350  0.939966E-02  0.179E+00    2.24       1.0  T
   4    -14.0703532  0.248818E-01  0.204E+00    2.28       1.0  T
   5    -14.1077032 -0.373500E-01  0.725E-01    1.96       1.0  T
   6    -14.1218845 -0.141813E-01  0.322E-01    2.25       1.0  T
   7    -14.1227088 -0.824276E-03  0.371E-01    2.19       1.0  T
   8    -14.1225751  0.133663E-03  0.380E-01    2.18       1.0  T
   9    -14.1229264 -0.351263E-03  0.259E-01    2.17       1.0  T
  10    -14.1232439 -0.317515E-03  0.808E-02    2.18       1.0  T
  11    -14.1232411  0.278217E-05  0.887E-02    2.18       1.0  T
  12    -14.1232900 -0.488309E-04  0.136E-02    2.19       2.1  T
  13    -14.1232914 -0.146240E-05  0.555E-03    2.19       5.2  T
  14    -14.1232916 -0.138860E-06  0.136E-03    2.19      21.2  T
  15    -14.1232916  0.527961E-08  0.145E-03    2.19      19.9  T
  16    -14.1232916 -0.672452E-08  0.466E-04    2.19      61.9  T
  17    -14.1232916 -0.118143E-08  0.550E-05    2.19     524.8  T
     SCC iter.                  ...        0 min,  0.003 sec
     gradient                   ...        0 min,  0.000 sec
 * total energy  :   -13.7716377 Eh     change       -0.2794877E-02 Eh
   gradient norm :     0.1243031 Eh/α   predicted    -0.2198610E-01 ( 686.66%)
   displ. norm   :     0.4340405 α      lambda       -0.2945127E-01
   maximum displ.:     0.2062796 α      in ANC's #10, #11, #3, ...

........................................................................
.............................. CYCLE   14 ..............................
........................................................................
   1    -14.1184777 -0.141185E+02  0.176E+00    2.02       0.0  T
   2    -14.1083515  0.101263E-01  0.147E+00    2.26       1.0  T
   3    -14.1082047  0.146762E-03  0.115E+00    2.02       1.0  T
   4    -14.1093107 -0.110599E-02  0.819E-01    1.93       1.0  T
   5    -14.1188164 -0.950573E-02  0.403E-01    2.20       1.0  T
   6    -14.1236897 -0.487327E-02  0.840E-02    2.15       1.0  T
   7    -14.1237153 -0.256206E-04  0.670E-02    2.15       1.0  T
   8    -14.1236498  0.654926E-04  0.624E-02    2.15       1.0  T
   9    -14.1237117 -0.618547E-04  0.178E-02    2.15       1.6  T
  10    -14.1237187 -0.701534E-05  0.595E-03    2.15       4.9  T
  11    -14.1237194 -0.650156E-06  0.264E-03    2.15      10.9  T
  12    -14.1237193  0.682641E-07  0.226E-03    2.15      12.8  T
  13    -14.1237194 -0.983572E-07  0.240E-04    2.15     120.5  T
  14    -14.1237194  0.546176E-10  0.704E-05    2.15     410.2  T
     SCC iter.                  ...        0 min,  0.003 sec
     gradient                   ...        0 min,  0.000 sec
 * total energy  :   -13.7926428 Eh     change       -0.2100516E-01 Eh
   gradient norm :     0.1000015 Eh/α   predicted    -0.1749982E-01 ( -16.69%)
   displ. norm   :     0.8026769 α      lambda       -0.5685739E-01
   maximum displ.:     0.3580668 α      in ANC's #11, #12, #20, ...

........................................................................
.............................. CYCLE   15 ..............................
........................................................................
   1    -14.1411205 -0.141411E+02  0.251E+00    1.31       0.0  T
   2    -14.1286918  0.124286E-01  0.168E+00    1.14       1.0  T
   3    -14.1155730  0.131188E-01  0.192E+00    1.40       1.0  T
   4    -14.1253128 -0.973973E-02  0.104E+00    1.43       1.0  T
   5    -14.1478243 -0.225115E-01  0.302E-01    1.24       1.0  T
   6    -14.1494399 -0.161564E-02  0.160E-01    1.30       1.0  T
   7    -14.1496821 -0.242134E-03  0.113E-01    1.30       1.0  T
   8    -14.1497450 -0.629530E-04  0.643E-02    1.28       1.0  T
   9    -14.1498294 -0.843629E-04  0.120E-02    1.30       2.4  T
  10    -14.1498286  0.729633E-06  0.115E-02    1.30       2.5  T
  11    -14.1498287 -0.606057E-07  0.917E-03    1.30       3.1  T
  12    -14.1498303 -0.163933E-05  0.190E-03    1.30      15.2  T
  13    -14.1498304 -0.625414E-07  0.529E-04    1.30      54.6  T
  14    -14.1498304 -0.142321E-08  0.229E-04    1.30     126.3  T
     SCC iter.                  ...        0 min,  0.003 sec
     gradient                   ...        0 min,  0.000 sec
 * total energy  :   -13.8024294 Eh     change       -0.9786605E-02 Eh
   gradient norm :     0.2245225 Eh/α   predicted    -0.4674507E-01 ( 377.64%)
   displ. norm   :     0.5576771 α      lambda       -0.5997650E-01
   maximum displ.:     0.2954813 α      in ANC's #10, #11, #8, ...

........................................................................
.............................. CYCLE   16 ..............................
........................................................................
   1    -14.1255167 -0.141255E+02  0.213E+00    1.59       0.0  T
   2    -14.1036931  0.218236E-01  0.178E+00    1.51       1.0  T
   3    -14.0894487  0.142444E-01  0.156E+00    1.79       1.0  T
   4    -14.0626573  0.267915E-01  0.169E+00    1.18       1.0  T
   5    -14.1209371 -0.582798E-01  0.703E-01    1.74       1.0  T
   6    -14.1322502 -0.113131E-01  0.250E-01    1.65       1.0  T
   7    -14.1336918 -0.144164E-02  0.242E-01    1.58       1.0  T
   8    -14.1335224  0.169394E-03  0.224E-01    1.56       1.0  T
   9    -14.1340386 -0.516202E-03  0.644E-02    1.59       1.0  T
  10    -14.1341612 -0.122551E-03  0.215E-02    1.61       1.3  T
  11    -14.1341633 -0.216049E-05  0.154E-02    1.61       1.9  T
  12    -14.1341669 -0.359453E-05  0.395E-03    1.61       7.3  T
  13    -14.1341670 -0.100733E-06  0.863E-04    1.61      33.5  T
  14    -14.1341670 -0.296594E-08  0.173E-04    1.61     166.4  T
     SCC iter.                  ...        0 min,  0.003 sec
     gradient                   ...        0 min,  0.001 sec
 * total energy  :   -13.8130558 Eh     change       -0.1062641E-01 Eh
   gradient norm :     0.1504727 Eh/α   predicted    -0.3931476E-01 ( 269.97%)
   displ. norm   :     0.6045508 α      lambda       -0.6287433E-01
   maximum displ.:     0.3371554 α      in ANC's #11, #10, #16, ...

........................................................................
.............................. CYCLE   17 ..............................
........................................................................
   1    -14.1642356 -0.141642E+02  0.230E+00    1.56       0.0  T
   2    -14.1438465  0.203890E-01  0.181E+00    1.35       1.0  T
   3    -14.1156274  0.282191E-01  0.174E+00    1.52       1.0  T
   4    -14.0828470  0.327804E-01  0.207E+00    1.50       1.0  T
   5    -14.1700382 -0.871912E-01  0.515E-01    1.42       1.0  T
   6    -14.1747586 -0.472032E-02  0.217E-01    1.48       1.0  T
   7    -14.1757950 -0.103642E-02  0.199E-01    1.42       1.0  T
   8    -14.1757680  0.269911E-04  0.178E-01    1.45       1.0  T
   9    -14.1762195 -0.451538E-03  0.364E-02    1.44       1.0  T
  10    -14.1762218 -0.229992E-05  0.277E-02    1.44       1.0  T
  11    -14.1762218  0.805880E-07  0.236E-02    1.44       1.2  T
  12    -14.1762220 -0.275762E-06  0.640E-03    1.44       4.5  T
  13    -14.1762222 -0.185362E-06  0.276E-03    1.44      10.5  T
  14    -14.1762223 -0.836484E-07  0.460E-04    1.44      62.8  T
  15    -14.1762223 -0.749550E-09  0.250E-04    1.44     115.6  T
     SCC iter.                  ...        0 min,  0.003 sec
     gradient                   ...        0 min,  0.001 sec
 * total energy  :   -13.8266534 Eh     change       -0.1359754E-01 Eh
   gradient norm :     0.1052485 Eh/α   predicted    -0.4292686E-01 ( 215.70%)
   displ. norm   :     0.5108392 α      lambda       -0.3071971E-01
   maximum displ.:     0.2440306 α      in ANC's #3, #10, #12, ...

........................................................................
.............................. CYCLE   18 ..............................
........................................................................
   1    -14.1668672 -0.141669E+02  0.163E+00    1.40       0.0  T
   2    -14.1287613  0.381059E-01  0.158E+00    1.22       1.0  T
   3    -14.1287605  0.792012E-06  0.138E+00    1.55       1.0  T
   4    -14.1631635 -0.344030E-01  0.106E+00    1.33       1.0  T
   5    -14.1721057 -0.894212E-02  0.269E-01    1.39       1.0  T
   6    -14.1742935 -0.218788E-02  0.167E-01    1.35       1.0  T
   7    -14.1740565  0.237070E-03  0.200E-01    1.36       1.0  T
   8    -14.1741204 -0.639401E-04  0.110E-01    1.34       1.0  T
   9    -14.1743605 -0.240104E-03  0.978E-03    1.37       3.0  T
  10    -14.1743607 -0.158192E-06  0.711E-03    1.37       4.1  T
  11    -14.1743606  0.102642E-06  0.529E-03    1.37       5.5  T
  12    -14.1743607 -0.162719E-06  0.182E-03    1.37      15.8  T
  13    -14.1743608 -0.593359E-07  0.102E-03    1.37      28.2  T
  14    -14.1743608 -0.248257E-07  0.122E-04    1.36     235.9  T
  15    -14.1743608 -0.193767E-09  0.280E-05    1.36    1032.1  T
     SCC iter.                  ...        0 min,  0.004 sec
     gradient                   ...        0 min,  0.001 sec
 * total energy  :   -13.8341544 Eh     change       -0.7501057E-02 Eh
   gradient norm :     0.1342630 Eh/α   predicted    -0.1936811E-01 ( 158.21%)
   displ. norm   :     0.4024912 α      lambda       -0.2334956E-01
   maximum displ.:     0.2252919 α      in ANC's #16, #19, #20, ...

........................................................................
.............................. CYCLE   19 ..............................
........................................................................
   1    -14.1762166 -0.141762E+02  0.120E+00    1.27       0.0  T
   2    -14.1732685  0.294810E-02  0.838E-01    1.38       1.0  T
   3    -14.1570248  0.162437E-01  0.112E+00    1.14       1.0  T
   4    -14.1715912 -0.145664E-01  0.466E-01    1.41       1.0  T
   5    -14.1770328 -0.544163E-02  0.141E-01    1.32       1.0  T
   6    -14.1771745 -0.141720E-03  0.850E-02    1.33       1.0  T
   7    -14.1770527  0.121828E-03  0.869E-02    1.32       1.0  T
   8    -14.1771991 -0.146363E-03  0.151E-02    1.33       1.9  T
   9    -14.1772011 -0.207020E-05  0.952E-03    1.33       3.0  T
  10    -14.1772026 -0.143072E-05  0.306E-03    1.33       9.4  T
  11    -14.1772026  0.646929E-08  0.189E-03    1.33      15.3  T
  12    -14.1772026 -0.441911E-07  0.754E-04    1.33      38.3  T
  13    -14.1772026  0.777801E-08  0.678E-04    1.33      42.6  T
     SCC iter.                  ...        0 min,  0.003 sec
     gradient                   ...        0 min,  0.001 sec
 * total energy  :   -13.8378497 Eh     change       -0.3695213E-02 Eh
   gradient norm :     0.0749950 Eh/α   predicted    -0.1356609E-01 ( 267.13%)
   displ. norm   :     0.3930276 α      lambda       -0.1840892E-01
   maximum displ.:     0.1782196 α      in ANC's #16, #3, #13, ...

........................................................................
.............................. CYCLE   20 ..............................
........................................................................
   1    -14.1977653 -0.141978E+02  0.120E+00    1.62       0.0  T
   2    -14.1965142  0.125111E-02  0.825E-01    1.62       1.0  T
   3    -14.1738648  0.226494E-01  0.112E+00    1.58       1.0  T
   4    -14.1935984 -0.197336E-01  0.458E-01    1.62       1.0  T
   5    -14.1976103 -0.401193E-02  0.225E-01    1.56       1.0  T
   6    -14.1985250 -0.914696E-03  0.806E-02    1.62       1.0  T
   7    -14.1984555  0.694992E-04  0.873E-02    1.59       1.0  T
   8    -14.1985299 -0.743967E-04  0.465E-02    1.59       1.0  T
   9    -14.1985706 -0.406748E-04  0.177E-02    1.60       1.6  T
  10    -14.1985766 -0.601566E-05  0.669E-03    1.60       4.3  T
  11    -14.1985775 -0.874657E-06  0.182E-03    1.60      15.9  T
  12    -14.1985775 -0.417666E-08  0.376E-04    1.60      76.9  T
  13    -14.1985775 -0.157582E-08  0.134E-04    1.60     214.8  T
     SCC iter.                  ...        0 min,  0.003 sec
     gradient                   ...        0 min,  0.000 sec
 * total energy  :   -13.8404258 Eh     change       -0.2576109E-02 Eh
   gradient norm :     0.1374147 Eh/α   predicted    -0.1062628E-01 ( 312.49%)
   displ. norm   :     0.3962237 α      lambda       -0.2194878E-01
   maximum displ.:     0.1814358 α      in ANC's #16, #3, #4, ...
 * RMSD in coord.:     1.9567807 α      energy gain  -0.8083610E+00 Eh

generating ANC from model Hessian ...
Using Lindh-Hessian (1995)
 Shifting diagonal of input Hessian by    1.0510130531865150E-002
 Lowest  eigenvalues of input Hessian
    0.010000    0.010294    0.010372    0.010400    0.000000    0.000000
    0.000000    0.000000    0.000000    0.000000    0.010642    0.010965
    0.011021    0.011188    0.011415    0.011531    0.012098    0.012630
 Highest eigenvalues
    0.705191    0.843566    0.903396    1.325512    1.882939    2.549302


........................................................................
.............................. CYCLE   21 ..............................
........................................................................
   1    -14.2103223 -0.142103E+02  0.976E-01    1.55       0.0  T
   2    -14.2052796  0.504274E-02  0.811E-01    1.44       1.0  T
   3    -14.1910710  0.142086E-01  0.987E-01    1.66       1.0  T
   4    -14.2085885 -0.175174E-01  0.466E-01    1.52       1.0  T
   5    -14.2109898 -0.240133E-02  0.149E-01    1.52       1.0  T
   6    -14.2113246 -0.334801E-03  0.134E-01    1.52       1.0  T
   7    -14.2112661  0.585046E-04  0.129E-01    1.49       1.0  T
   8    -14.2115781 -0.311995E-03  0.280E-02    1.51       1.0  T
   9    -14.2115914 -0.132469E-04  0.996E-03    1.51       2.9  T
  10    -14.2115910  0.318408E-06  0.690E-03    1.51       4.2  T
  11    -14.2115917 -0.656174E-06  0.365E-03    1.51       7.9  T
  12    -14.2115919 -0.183135E-06  0.843E-04    1.51      34.2  T
  13    -14.2115919  0.233719E-09  0.265E-04    1.51     109.0  T
     SCC iter.                  ...        0 min,  0.003 sec
     gradient                   ...        0 min,  0.000 sec
 * total energy  :   -13.8427236 Eh     change       -0.2297788E-02 Eh
   gradient norm :     0.0857806 Eh/α   predicted     0.0000000E+00 (-100.00%)
   displ. norm   :     0.3335753 α      lambda       -0.1166540E-01
   maximum displ.:     0.2192428 α      in ANC's #11, #10, #25, ...

........................................................................
.............................. CYCLE   22 ..............................
........................................................................
   1    -14.2071499 -0.142071E+02  0.637E-01    1.44       0.0  T
   2    -14.2069138  0.236112E-03  0.411E-01    1.47       1.0  T
   3    -14.2039848  0.292890E-02  0.479E-01    1.39       1.0  T
   4    -14.2070665 -0.308168E-02  0.123E-01    1.48       1.0  T
   5    -14.2073177 -0.251135E-03  0.294E-02    1.45       1.0  T
   6    -14.2073110  0.661043E-05  0.237E-02    1.46       1.2  T
   7    -14.2072985  0.125418E-04  0.291E-02    1.45       1.0  T
   8    -14.2073181 -0.195704E-04  0.925E-03    1.45       3.1  T
   9    -14.2073196 -0.152627E-05  0.451E-03    1.45       6.4  T
  10    -14.2073196 -0.196599E-07  0.334E-03    1.45       8.6  T
  11    -14.2073198 -0.191828E-06  0.111E-03    1.45      26.1  T
  12    -14.2073198 -0.219115E-07  0.259E-04    1.45     111.4  T
  13    -14.2073198 -0.633921E-09  0.317E-05    1.45     910.1  T
     SCC iter.                  ...        0 min,  0.004 sec
     gradient                   ...        0 min,  0.000 sec
 * total energy  :   -13.8504806 Eh     change       -0.7757053E-02 Eh
   gradient norm :     0.0317438 Eh/α   predicted    -0.6481724E-02 ( -16.44%)
   displ. norm   :     0.4299111 α      lambda       -0.5778209E-02
   maximum displ.:     0.2578987 α      in ANC's #13, #12, #11, ...

........................................................................
.............................. CYCLE   23 ..............................
........................................................................
   1    -14.2038063 -0.142038E+02  0.977E-01    1.42       0.0  T
   2    -14.2032611  0.545212E-03  0.623E-01    1.46       1.0  T
   3    -14.1904945  0.127666E-01  0.814E-01    1.34       1.0  T
   4    -14.2029192 -0.124247E-01  0.230E-01    1.41       1.0  T
   5    -14.2039530 -0.103379E-02  0.607E-02    1.44       1.0  T
   6    -14.2039664 -0.133343E-04  0.582E-02    1.42       1.0  T
   7    -14.2039973 -0.309390E-04  0.345E-02    1.43       1.0  T
   8    -14.2040147 -0.174325E-04  0.118E-02    1.43       2.4  T
   9    -14.2040173 -0.258488E-05  0.424E-03    1.43       6.8  T
  10    -14.2040171  0.205874E-06  0.425E-03    1.43       6.8  T
  11    -14.2040174 -0.293913E-06  0.211E-03    1.43      13.7  T
  12    -14.2040175 -0.864916E-07  0.482E-04    1.43      59.9  T
  13    -14.2040175 -0.302970E-08  0.107E-04    1.43     271.0  T
     SCC iter.                  ...        0 min,  0.004 sec
     gradient                   ...        0 min,  0.001 sec
 * total energy  :   -13.8532764 Eh     change       -0.2795792E-02 Eh
   gradient norm :     0.0344291 Eh/α   predicted    -0.3423083E-02 (  22.44%)
   displ. norm   :     0.4680132 α      lambda       -0.3602463E-02
   maximum displ.:     0.3234973 α      in ANC's #11, #10, #13, ...

........................................................................
.............................. CYCLE   24 ..............................
........................................................................
   1    -14.1992388 -0.141992E+02  0.866E-01    1.46       0.0  T
   2    -14.1988312  0.407625E-03  0.550E-01    1.46       1.0  T
   3    -14.1863208  0.125104E-01  0.761E-01    1.43       1.0  T
   4    -14.1985518 -0.122310E-01  0.200E-01    1.44       1.0  T
   5    -14.1993349 -0.783177E-03  0.396E-02    1.47       1.0  T
   6    -14.1993488 -0.138839E-04  0.352E-02    1.45       1.0  T
   7    -14.1993430  0.581056E-05  0.321E-02    1.45       1.0  T
   8    -14.1993642 -0.212100E-04  0.208E-03    1.46      13.9  T
   9    -14.1993642  0.435617E-07  0.204E-03    1.46      14.2  T
  10    -14.1993642 -0.240783E-07  0.119E-03    1.46      24.3  T
  11    -14.1993642 -0.242155E-07  0.612E-04    1.46      47.2  T
  12    -14.1993642 -0.636578E-08  0.131E-04    1.46     220.5  T
     SCC iter.                  ...        0 min,  0.003 sec
     gradient                   ...        0 min,  0.001 sec
 * total energy  :   -13.8557341 Eh     change       -0.2457695E-02 Eh
   gradient norm :     0.0306802 Eh/α   predicted    -0.2195768E-02 ( -10.66%)
   displ. norm   :     0.3786987 α      lambda       -0.2255435E-02
   maximum displ.:     0.2044114 α      in ANC's #10, #11, #9, ...

........................................................................
.............................. CYCLE   25 ..............................
........................................................................
   1    -14.2032956 -0.142033E+02  0.768E-01    1.51       0.0  T
   2    -14.2031258  0.169841E-03  0.492E-01    1.52       1.0  T
   3    -14.1931297  0.999611E-02  0.652E-01    1.51       1.0  T
   4    -14.2029588 -0.982915E-02  0.145E-01    1.48       1.0  T
   5    -14.2033297 -0.370915E-03  0.382E-02    1.52       1.0  T
   6    -14.2033123  0.174792E-04  0.454E-02    1.51       1.0  T
   7    -14.2033210 -0.872567E-05  0.330E-02    1.51       1.0  T
   8    -14.2033433 -0.223575E-04  0.755E-03    1.51       3.8  T
   9    -14.2033443 -0.953315E-06  0.230E-03    1.52      12.6  T
  10    -14.2033444 -0.677495E-07  0.473E-04    1.52      61.0  T
  11    -14.2033444 -0.853156E-09  0.349E-04    1.52      82.8  T
     SCC iter.                  ...        0 min,  0.003 sec
     gradient                   ...        0 min,  0.001 sec
 * total energy  :   -13.8573844 Eh     change       -0.1650328E-02 Eh
   gradient norm :     0.0275377 Eh/α   predicted    -0.1289445E-02 ( -21.87%)
   displ. norm   :     0.5297550 α      lambda       -0.3595669E-02
   maximum displ.:     0.2888741 α      in ANC's #11, #13, #12, ...

........................................................................
.............................. CYCLE   26 ..............................
........................................................................
   1    -14.2071909 -0.142072E+02  0.105E+00    1.65       0.0  T
   2    -14.2067749  0.415951E-03  0.686E-01    1.65       1.0  T
   3    -14.1827752  0.239997E-01  0.102E+00    1.67       1.0  T
   4    -14.2067703 -0.239951E-01  0.182E-01    1.61       1.0  T
   5    -14.2072398 -0.469495E-03  0.620E-02    1.65       1.0  T
   6    -14.2071685  0.712444E-04  0.847E-02    1.63       1.0  T
   7    -14.2071965 -0.279331E-04  0.662E-02    1.63       1.0  T
   8    -14.2072915 -0.950529E-04  0.572E-03    1.64       5.0  T
   9    -14.2072916 -0.661997E-07  0.385E-03    1.64       7.5  T
  10    -14.2072916 -0.458805E-07  0.249E-03    1.64      11.6  T
  11    -14.2072917 -0.553737E-07  0.734E-04    1.64      39.3  T
  12    -14.2072917 -0.582335E-08  0.326E-04    1.64      88.6  T
     SCC iter.                  ...        0 min,  0.003 sec
     gradient                   ...        0 min,  0.001 sec
 * total energy  :   -13.8594423 Eh     change       -0.2057911E-02 Eh
   gradient norm :     0.0207637 Eh/α   predicted    -0.2302383E-02 (  11.88%)
   displ. norm   :     0.4085177 α      lambda       -0.2464392E-02
   maximum displ.:     0.2194043 α      in ANC's #9, #10, #13, ...

........................................................................
.............................. CYCLE   27 ..............................
........................................................................
   1    -14.2233118 -0.142233E+02  0.765E-01    1.73       0.0  T
   2    -14.2232003  0.111518E-03  0.487E-01    1.72       1.0  T
   3    -14.2135497  0.965056E-02  0.646E-01    1.82       1.0  T
   4    -14.2232946 -0.974492E-02  0.666E-02    1.71       1.0  T
   5    -14.2233360 -0.413849E-04  0.352E-02    1.72       1.0  T
   6    -14.2232796  0.564140E-04  0.548E-02    1.72       1.0  T
   7    -14.2233164 -0.367888E-04  0.320E-02    1.72       1.0  T
   8    -14.2233398 -0.234457E-04  0.672E-03    1.72       4.3  T
   9    -14.2233404 -0.557370E-06  0.190E-03    1.72      15.2  T
  10    -14.2233403  0.586179E-07  0.195E-03    1.72      14.8  T
  11    -14.2233404 -0.500716E-07  0.105E-03    1.72      27.5  T
  12    -14.2233404 -0.171842E-07  0.136E-04    1.72     212.0  T
  13    -14.2233404  0.447162E-10  0.914E-05    1.72     316.0  T
     SCC iter.                  ...        0 min,  0.006 sec
     gradient                   ...        0 min,  0.001 sec
 * total energy  :   -13.8602948 Eh     change       -0.8524973E-03 Eh
   gradient norm :     0.0273865 Eh/α   predicted    -0.1437837E-02 (  68.66%)
   displ. norm   :     0.4048297 α      lambda       -0.1903078E-02
   maximum displ.:     0.2123382 α      in ANC's #10, #11, #13, ...

........................................................................
.............................. CYCLE   28 ..............................
........................................................................
   1    -14.2093138 -0.142093E+02  0.933E-01    1.69       0.0  T
   2    -14.2091928  0.121020E-03  0.582E-01    1.72       1.0  T
   3    -14.1961609  0.130319E-01  0.657E-01    1.57       1.0  T
   4    -14.2090647 -0.129037E-01  0.122E-01    1.71       1.0  T
   5    -14.2093544 -0.289700E-03  0.399E-02    1.71       1.0  T
   6    -14.2093014  0.529139E-04  0.545E-02    1.71       1.0  T
   7    -14.2092887  0.127381E-04  0.529E-02    1.70       1.0  T
   8    -14.2093414 -0.526686E-04  0.231E-02    1.70       1.2  T
   9    -14.2093569 -0.154750E-04  0.329E-03    1.71       8.8  T
  10    -14.2093569 -0.124645E-07  0.306E-03    1.71       9.4  T
  11    -14.2093568  0.378648E-07  0.190E-03    1.71      15.2  T
  12    -14.2093569 -0.447259E-07  0.598E-04    1.71      48.2  T
  13    -14.2093569 -0.106539E-07  0.277E-04    1.71     104.2  T
     SCC iter.                  ...        0 min,  0.004 sec
     gradient                   ...        0 min,  0.001 sec
 * total energy  :   -13.8608561 Eh     change       -0.5612471E-03 Eh
   gradient norm :     0.0313218 Eh/α   predicted    -0.1107485E-02 (  97.33%)
   displ. norm   :     0.2134552 α      lambda       -0.1915401E-02
   maximum displ.:     0.0929023 α      in ANC's #9, #14, #10, ...

........................................................................
.............................. CYCLE   29 ..............................
........................................................................
   1    -14.2197621 -0.142198E+02  0.616E-01    1.66       0.0  T
   2    -14.2192441  0.518025E-03  0.436E-01    1.60       1.0  T
   3    -14.2037212  0.155229E-01  0.870E-01    1.82       1.0  T
   4    -14.2196054 -0.158842E-01  0.124E-01    1.67       1.0  T
   5    -14.2197401 -0.134710E-03  0.664E-02    1.64       1.0  T
   6    -14.2198192 -0.790555E-04  0.423E-02    1.63       1.0  T
   7    -14.2198114  0.783637E-05  0.404E-02    1.64       1.0  T
   8    -14.2198454 -0.339951E-04  0.643E-03    1.64       4.5  T
   9    -14.2198460 -0.656184E-06  0.159E-03    1.64      18.1  T
  10    -14.2198460  0.177849E-10  0.180E-03    1.64      16.1  T
  11    -14.2198460 -0.227544E-07  0.812E-04    1.64      35.5  T
  12    -14.2198460 -0.685366E-08  0.193E-04    1.64     149.6  T
     SCC iter.                  ...        0 min,  0.003 sec
     gradient                   ...        0 min,  0.001 sec
 * total energy  :   -13.8610738 Eh     change       -0.2177044E-03 Eh
   gradient norm :     0.0312146 Eh/α   predicted    -0.1001335E-02 ( 359.95%)
   displ. norm   :     0.1573854 α      lambda       -0.1387756E-02
   maximum displ.:     0.0851592 α      in ANC's #13, #9, #12, ...

........................................................................
.............................. CYCLE   30 ..............................
........................................................................
   1    -14.2190099 -0.142190E+02  0.447E-01    1.73       0.0  T
   2    -14.2189296  0.802853E-04  0.297E-01    1.75       1.0  T
   3    -14.2163482  0.258145E-02  0.389E-01    1.67       1.0  T
   4    -14.2190106 -0.266244E-02  0.471E-02    1.74       1.0  T
   5    -14.2190270 -0.164149E-04  0.305E-02    1.73       1.0  T
   6    -14.2190279 -0.861014E-06  0.272E-02    1.74       1.1  T
   7    -14.2190420 -0.141463E-04  0.815E-03    1.74       3.5  T
   8    -14.2190428 -0.733618E-06  0.244E-03    1.73      11.8  T
   9    -14.2190428 -0.791554E-07  0.986E-04    1.74      29.3  T
  10    -14.2190428 -0.371314E-08  0.655E-04    1.74      44.1  T
     SCC iter.                  ...        0 min,  0.003 sec
     gradient                   ...        0 min,  0.001 sec
 * total energy  :   -13.8616685 Eh     change       -0.5947174E-03 Eh
   gradient norm :     0.0161664 Eh/α   predicted    -0.7110641E-03 (  19.56%)
   displ. norm   :     0.1453920 α      lambda       -0.4917771E-03
   maximum displ.:     0.0632119 α      in ANC's #6, #9, #4, ...

........................................................................
.............................. CYCLE   31 ..............................
........................................................................
   1    -14.2217325 -0.142217E+02  0.326E-01    1.75       0.0  T
   2    -14.2217233  0.922673E-05  0.208E-01    1.75       1.0  T
   3    -14.2209433  0.779963E-03  0.208E-01    1.76       1.0  T
   4    -14.2215668 -0.623547E-03  0.882E-02    1.73       1.0  T
   5    -14.2217421 -0.175221E-03  0.218E-02    1.75       1.3  T
   6    -14.2217360  0.608244E-05  0.265E-02    1.75       1.1  T
   7    -14.2217449 -0.896700E-05  0.112E-02    1.75       2.6  T
   8    -14.2217467 -0.171573E-05  0.395E-03    1.75       7.3  T
   9    -14.2217469 -0.219818E-06  0.136E-03    1.75      21.2  T
  10    -14.2217469 -0.119409E-07  0.817E-04    1.75      35.3  T
  11    -14.2217469 -0.368203E-08  0.409E-04    1.75      70.5  T
     SCC iter.                  ...        0 min,  0.003 sec
     gradient                   ...        0 min,  0.001 sec
 * total energy  :   -13.8618007 Eh     change       -0.1322316E-03 Eh
   gradient norm :     0.0111224 Eh/α   predicted    -0.2510857E-03 (  89.88%)
   displ. norm   :     0.2263473 α      lambda       -0.4265808E-03
   maximum displ.:     0.1145959 α      in ANC's #10, #11, #13, ...

........................................................................
.............................. CYCLE   32 ..............................
........................................................................
   1    -14.2166314 -0.142166E+02  0.465E-01    1.74       0.0  T
   2    -14.2166205  0.108806E-04  0.290E-01    1.75       1.0  T
   3    -14.2156065  0.101404E-02  0.231E-01    1.70       1.0  T
   4    -14.2165597 -0.953219E-03  0.574E-02    1.75       1.0  T
   5    -14.2166220 -0.622292E-04  0.355E-02    1.74       1.0  T
   6    -14.2166358 -0.138319E-04  0.232E-02    1.74       1.2  T
   7    -14.2166414 -0.558829E-05  0.418E-03    1.74       6.9  T
   8    -14.2166414 -0.421098E-07  0.275E-03    1.74      10.5  T
   9    -14.2166414 -0.328214E-07  0.207E-03    1.74      14.0  T
  10    -14.2166415 -0.248533E-07  0.109E-03    1.74      26.4  T
  11    -14.2166415 -0.211392E-07  0.268E-04    1.74     107.6  T
  12    -14.2166415 -0.908225E-09  0.916E-05    1.74     315.2  T
     SCC iter.                  ...        0 min,  0.005 sec
     gradient                   ...        0 min,  0.001 sec
 * total energy  :   -13.8620062 Eh     change       -0.2054678E-03 Eh
   gradient norm :     0.0112532 Eh/α   predicted    -0.2242191E-03 (   9.13%)
   displ. norm   :     0.0725082 α      lambda       -0.2379208E-03
   maximum displ.:     0.0274169 α      in ANC's #12, #17, #10, ...

........................................................................
.............................. CYCLE   33 ..............................
........................................................................
   1    -14.2189911 -0.142190E+02  0.160E-01    1.74       0.0  T
   2    -14.2189254  0.656447E-04  0.122E-01    1.72       1.0  T
   3    -14.2178579  0.106755E-02  0.216E-01    1.78       1.0  T
   4    -14.2189842 -0.112631E-02  0.331E-02    1.74       1.0  T
   5    -14.2189976 -0.134019E-04  0.145E-02    1.73       2.0  T
   6    -14.2189961  0.143684E-05  0.141E-02    1.73       2.0  T
   7    -14.2189982 -0.202781E-05  0.915E-03    1.73       3.2  T
   8    -14.2190000 -0.186590E-05  0.243E-03    1.73      11.9  T
   9    -14.2190002 -0.129443E-06  0.508E-04    1.73      56.9  T
  10    -14.2190002 -0.602915E-09  0.337E-04    1.73      85.7  T
     SCC iter.                  ...        0 min,  0.005 sec
     gradient                   ...        0 min,  0.001 sec
 * total energy  :   -13.8621354 Eh     change       -0.1291577E-03 Eh
   gradient norm :     0.0073167 Eh/α   predicted    -0.1195860E-03 (  -7.41%)
   displ. norm   :     0.1367605 α      lambda       -0.1606334E-03
   maximum displ.:     0.0561035 α      in ANC's #11, #4, #13, ...

........................................................................
.............................. CYCLE   34 ..............................
........................................................................
   1    -14.2219360 -0.142219E+02  0.305E-01    1.77       0.0  T
   2    -14.2219349  0.106037E-05  0.192E-01    1.78       1.0  T
   3    -14.2216134  0.321554E-03  0.120E-01    1.77       1.0  T
   4    -14.2218628 -0.249392E-03  0.602E-02    1.76       1.0  T
   5    -14.2219408 -0.780562E-04  0.144E-02    1.77       2.0  T
   6    -14.2219390  0.186946E-05  0.144E-02    1.77       2.0  T
   7    -14.2219410 -0.204974E-05  0.824E-03    1.77       3.5  T
   8    -14.2219420 -0.985798E-06  0.251E-03    1.77      11.5  T
   9    -14.2219421 -0.843914E-07  0.652E-04    1.77      44.3  T
  10    -14.2219421 -0.475989E-09  0.314E-04    1.77      91.9  T
     SCC iter.                  ...        0 min,  0.002 sec
     gradient                   ...        0 min,  0.001 sec
 * total energy  :   -13.8622237 Eh     change       -0.8834432E-04 Eh
   gradient norm :     0.0058059 Eh/α   predicted    -0.8181742E-04 (  -7.39%)
   displ. norm   :     0.2330774 α      lambda       -0.1768309E-03
   maximum displ.:     0.0945442 α      in ANC's #10, #13, #11, ...

........................................................................
.............................. CYCLE   35 ..............................
........................................................................
   1    -14.2178398 -0.142178E+02  0.479E-01    1.74       0.0  T
   2    -14.2178396  0.157685E-06  0.296E-01    1.74       1.0  T
   3    -14.2176550  0.184584E-03  0.829E-02    1.76       1.0  T
   4    -14.2178039 -0.148873E-03  0.453E-02    1.74       1.0  T
   5    -14.2178426 -0.386844E-04  0.170E-02    1.74       1.7  T
   6    -14.2178411  0.149167E-05  0.128E-02    1.74       2.3  T
   7    -14.2178439 -0.281014E-05  0.270E-03    1.74      10.7  T
   8    -14.2178440 -0.726154E-07  0.158E-03    1.74      18.3  T
   9    -14.2178440 -0.172928E-07  0.826E-04    1.74      35.0  T
  10    -14.2178440 -0.186388E-08  0.296E-04    1.74      97.5  T
     SCC iter.                  ...        0 min,  0.002 sec
     gradient                   ...        0 min,  0.001 sec
 * total energy  :   -13.8622522 Eh     change       -0.2854839E-04 Eh
   gradient norm :     0.0072038 Eh/α   predicted    -0.9321884E-04 ( 226.53%)
   displ. norm   :     0.0798716 α      lambda       -0.1116384E-03
   maximum displ.:     0.0378134 α      in ANC's #10, #6, #11, ...

........................................................................
.............................. CYCLE   36 ..............................
........................................................................
   1    -14.2219340 -0.142219E+02  0.156E-01    1.74       0.0  T
   2    -14.2219275  0.646485E-05  0.101E-01    1.74       1.0  T
   3    -14.2216802  0.247300E-03  0.114E-01    1.75       1.0  T
   4    -14.2219234 -0.243190E-03  0.292E-02    1.73       1.0  T
   5    -14.2219359 -0.125362E-04  0.124E-02    1.74       2.3  T
   6    -14.2219358  0.140427E-06  0.110E-02    1.74       2.6  T
   7    -14.2219380 -0.220351E-05  0.228E-03    1.74      12.7  T
   8    -14.2219381 -0.584853E-07  0.140E-03    1.74      20.6  T
   9    -14.2219381 -0.178377E-07  0.862E-04    1.74      33.5  T
  10    -14.2219381 -0.100854E-07  0.251E-04    1.74     115.0  T
     SCC iter.                  ...        0 min,  0.002 sec
     gradient                   ...        0 min,  0.001 sec
 * total energy  :   -13.8622622 Eh     change       -0.9921842E-05 Eh
   gradient norm :     0.0058220 Eh/α   predicted    -0.5617353E-04 ( 466.16%)
   displ. norm   :     0.0729167 α      lambda       -0.1232203E-03
   maximum displ.:     0.0370309 α      in ANC's #12, #10, #14, ...

........................................................................
.............................. CYCLE   37 ..............................
........................................................................
   1    -14.2215547 -0.142216E+02  0.158E-01    1.77       0.0  T
   2    -14.2215501  0.461472E-05  0.103E-01    1.77       1.0  T
   3    -14.2210728  0.477240E-03  0.134E-01    1.75       1.0  T
   4    -14.2215472 -0.474412E-03  0.219E-02    1.77       1.3  T
   5    -14.2215553 -0.802260E-05  0.110E-02    1.77       2.6  T
   6    -14.2215555 -0.199592E-06  0.708E-03    1.77       4.1  T
   7    -14.2215560 -0.507200E-06  0.318E-03    1.77       9.1  T
   8    -14.2215561 -0.146909E-06  0.119E-03    1.77      24.2  T
   9    -14.2215561 -0.186508E-07  0.468E-04    1.77      61.7  T
  10    -14.2215561  0.530862E-09  0.310E-04    1.77      93.1  T
     SCC iter.                  ...        0 min,  0.003 sec
     gradient                   ...        0 min,  0.001 sec
 * total energy  :   -13.8622841 Eh     change       -0.2189069E-04 Eh
   gradient norm :     0.0060086 Eh/α   predicted    -0.6193733E-04 ( 182.94%)
   displ. norm   :     0.0561150 α      lambda       -0.5934092E-04
   maximum displ.:     0.0303058 α      in ANC's #4, #5, #13, ...

........................................................................
.............................. CYCLE   38 ..............................
........................................................................
   1    -14.2212493 -0.142212E+02  0.110E-01    1.75       0.0  T
   2    -14.2212493 -0.232490E-07  0.685E-02    1.75       1.0  T
   3    -14.2212395  0.983803E-05  0.234E-02    1.75       1.2  T
   4    -14.2212456 -0.607818E-05  0.130E-02    1.75       2.2  T
   5    -14.2212495 -0.389772E-05  0.433E-03    1.75       6.7  T
   6    -14.2212496 -0.128874E-06  0.242E-03    1.75      11.9  T
   7    -14.2212497 -0.806575E-07  0.410E-04    1.75      70.4  T
   8    -14.2212497  0.416128E-09  0.331E-04    1.75      87.1  T
     SCC iter.                  ...        0 min,  0.003 sec
     gradient                   ...        0 min,  0.001 sec
 * total energy  :   -13.8623153 Eh     change       -0.3120237E-04 Eh
   gradient norm :     0.0030692 Eh/α   predicted    -0.2976513E-04 (  -4.61%)
   displ. norm   :     0.0414676 α      lambda       -0.2059925E-04
   maximum displ.:     0.0236646 α      in ANC's #4, #2, #13, ...

........................................................................
.............................. CYCLE   39 ..............................
........................................................................
   1    -14.2198365 -0.142198E+02  0.971E-02    1.75       0.0  T
   2    -14.2198352  0.131660E-05  0.604E-02    1.75       1.0  T
   3    -14.2197023  0.132931E-03  0.702E-02    1.74       1.0  T
   4    -14.2198365 -0.134267E-03  0.580E-03    1.75       5.0  T
   5    -14.2198367 -0.142043E-06  0.456E-03    1.75       6.3  T
   6    -14.2198367  0.118117E-07  0.319E-03    1.75       9.0  T
   7    -14.2198368 -0.126317E-06  0.149E-03    1.75      19.4  T
   8    -14.2198368 -0.369964E-07  0.419E-04    1.75      68.9  T
   9    -14.2198368 -0.235480E-08  0.225E-04    1.75     128.4  T
     SCC iter.                  ...        0 min,  0.004 sec
     gradient                   ...        0 min,  0.001 sec
 * total energy  :   -13.8623220 Eh     change       -0.6789219E-05 Eh
   gradient norm :     0.0024005 Eh/α   predicted    -0.1031694E-04 (  51.96%)
   displ. norm   :     0.0421095 α      lambda       -0.1749594E-04
   maximum displ.:     0.0232667 α      in ANC's #4, #10, #12, ...

........................................................................
.............................. CYCLE   40 ..............................
........................................................................
   1    -14.2207602 -0.142208E+02  0.451E-02    1.75       0.0  T
   2    -14.2207564  0.381057E-05  0.339E-02    1.75       1.0  T
   3    -14.2206916  0.648263E-04  0.503E-02    1.74       1.0  T
   4    -14.2207525 -0.609333E-04  0.209E-02    1.75       1.4  T
   5    -14.2207608 -0.833419E-05  0.482E-03    1.75       6.0  T
   6    -14.2207608  0.273921E-07  0.387E-03    1.75       7.5  T
   7    -14.2207610 -0.214245E-06  0.881E-04    1.75      32.8  T
   8    -14.2207610 -0.625233E-08  0.445E-04    1.75      64.9  T
     SCC iter.                  ...        0 min,  0.002 sec
     gradient                   ...        0 min,  0.001 sec
 * total energy  :   -13.8623356 Eh     change       -0.1353162E-04 Eh
   gradient norm :     0.0010718 Eh/α   predicted    -0.8763934E-05 ( -35.23%)
   displ. norm   :     0.1551197 α      lambda       -0.2460821E-04
   maximum displ.:     0.1009354 α      in ANC's #4, #10, #12, ...

........................................................................
.............................. CYCLE   41 ..............................
........................................................................
   1    -14.2215800 -0.142216E+02  0.150E-01    1.74       0.0  T
   2    -14.2215540  0.260437E-04  0.106E-01    1.74       1.0  T
   3    -14.2205313  0.102269E-02  0.191E-01    1.73       1.0  T
   4    -14.2215478 -0.101647E-02  0.435E-02    1.75       1.0  T
   5    -14.2215810 -0.331865E-04  0.164E-02    1.74       1.8  T
   6    -14.2215835 -0.251881E-05  0.957E-03    1.74       3.0  T
   7    -14.2215843 -0.802917E-06  0.419E-03    1.74       6.9  T
   8    -14.2215845 -0.209999E-06  0.248E-03    1.74      11.6  T
   9    -14.2215846 -0.130925E-06  0.744E-04    1.74      38.8  T
  10    -14.2215846 -0.433788E-08  0.383E-04    1.74      75.4  T
     SCC iter.                  ...        0 min,  0.003 sec
     gradient                   ...        0 min,  0.001 sec
 * total energy  :   -13.8623507 Eh     change       -0.1508066E-04 Eh
   gradient norm :     0.0018482 Eh/α   predicted    -0.1243640E-04 ( -17.53%)
   displ. norm   :     0.0365793 α      lambda       -0.7883011E-05
   maximum displ.:     0.0287745 α      in ANC's #4, #9, #10, ...

........................................................................
.............................. CYCLE   42 ..............................
........................................................................
   1    -14.2213518 -0.142214E+02  0.422E-02    1.74       0.0  T
   2    -14.2213514  0.399590E-06  0.262E-02    1.74       1.1  T
   3    -14.2213314  0.199581E-04  0.308E-02    1.74       1.0  T
   4    -14.2213507 -0.192919E-04  0.775E-03    1.74       3.7  T
   5    -14.2213518 -0.103106E-05  0.361E-03    1.74       8.0  T
   6    -14.2213520 -0.219967E-06  0.160E-03    1.74      18.1  T
   7    -14.2213520 -0.370109E-08  0.892E-04    1.74      32.3  T
   8    -14.2213520 -0.122110E-07  0.194E-04    1.74     149.1  T
     SCC iter.                  ...        0 min,  0.002 sec
     gradient                   ...        0 min,  0.001 sec
 * total energy  :   -13.8623591 Eh     change       -0.8417949E-05 Eh
   gradient norm :     0.0018866 Eh/α   predicted    -0.3944394E-05 ( -53.14%)
   displ. norm   :     0.1244053 α      lambda       -0.2184711E-04
   maximum displ.:     0.0950884 α      in ANC's #4, #10, #9, ...
 * RMSD in coord.:     0.9573509 α      energy gain  -0.2193332E-01 Eh

generating ANC from model Hessian ...
Using Lindh-Hessian (1995)
 Shifting diagonal of input Hessian by    1.0106022270914864E-002
 Lowest  eigenvalues of input Hessian
    0.010000    0.010051    0.010073    0.010099    0.000000    0.000000
    0.000000    0.000000    0.000000    0.000000    0.010171    0.010269
    0.010337    0.010386    0.010573    0.010708    0.011102    0.011216
 Highest eigenvalues
    0.716180    0.854711    0.969820    1.418750    1.915541    2.667905


........................................................................
.............................. CYCLE   43 ..............................
........................................................................
   1    -14.2202202 -0.142202E+02  0.132E-01    1.74       0.0  T
   2    -14.2202134  0.677846E-05  0.859E-02    1.74       1.0  T
[...]


........................................................................
.............................. CYCLE   67 ..............................
........................................................................
   1    -14.2201117 -0.142201E+02  0.776E-02    1.75       0.0  T
   2    -14.2201117  0.501441E-07  0.499E-02    1.75       1.0  T
   3    -14.2201022  0.944813E-05  0.233E-02    1.74       1.2  T
   4    -14.2201109 -0.864523E-05  0.791E-03    1.75       3.6  T
   5    -14.2201113 -0.449964E-06  0.673E-03    1.75       4.3  T
   6    -14.2201112  0.169569E-06  0.550E-03    1.75       5.3  T
   7    -14.2201120 -0.805388E-06  0.721E-04    1.75      40.0  T
   8    -14.2201120 -0.721707E-08  0.396E-04    1.75      72.9  T
     SCC iter.                  ...        0 min,  0.002 sec
     gradient                   ...        0 min,  0.000 sec
 * total energy  :   -13.8629792 Eh     change       -0.8552541E-05 Eh
   gradient norm :     0.0012619 Eh/α   predicted     0.0000000E+00 (-100.00%)
   displ. norm   :     0.0324026 α      lambda       -0.8080046E-05
   maximum displ.:     0.0143765 α      in ANC's #5, #13, #12, ...

........................................................................
.............................. CYCLE   68 ..............................
........................................................................
   1    -14.2207708 -0.142208E+02  0.704E-02    1.75       0.0  T
   2    -14.2207701  0.737753E-06  0.434E-02    1.75       1.0  T
   3    -14.2207044  0.656676E-04  0.478E-02    1.74       1.0  T
   4    -14.2207699 -0.655069E-04  0.880E-03    1.75       3.3  T
   5    -14.2207710 -0.106685E-05  0.305E-03    1.75       9.5  T
   6    -14.2207708  0.194296E-06  0.381E-03    1.75       7.6  T
   7    -14.2207710 -0.236078E-06  0.690E-04    1.75      41.9  T
   8    -14.2207710 -0.503630E-08  0.239E-04    1.75     121.0  T
     SCC iter.                  ...        0 min,  0.001 sec
     gradient                   ...        0 min,  0.000 sec
 * total energy  :   -13.8629817 Eh     change       -0.2492672E-05 Eh
   gradient norm :     0.0009932 Eh/α   predicted    -0.4040735E-05 (  62.10%)
   displ. norm   :     0.0447765 α      lambda       -0.1078164E-04
   maximum displ.:     0.0295118 α      in ANC's #9, #5, #8, ...

   *** GEOMETRY OPTIMIZATION CONVERGED AFTER 68 ITERATIONS ***

------------------------------------------------------------------------
 total energy gain   :        -0.8309170 Eh     -521.4083 kcal/mol
 total RMSD          :         2.5492966 a0        1.3490 Å
 total power (kW/mol):       -32.0819436 (step)-8273.2758 (real)
------------------------------------------------------------------------

 ANCopt (total)                0 d,  0 h,  0 min,  0.264 sec
 optimizer setup                ...        0 min,  0.000 sec (  0.009%)
 model hessian                  ...        0 min,  0.001 sec (  0.204%)
 ANC generation                 ...        0 min,  0.000 sec (  0.138%)
 coordinate transformation      ...        0 min,  0.000 sec (  0.081%)
 single point calculation       ...        0 min,  0.256 sec ( 96.979%)
 optimization log               ...        0 min,  0.002 sec (  0.774%)
 hessian update                 ...        0 min,  0.002 sec (  0.730%)
 rational function              ...        0 min,  0.002 sec (  0.629%)

================
 final structure:
================
12
 xtb: 6.5.1 (conda-forge)
Be           1.15482734065072        1.08625444808166        0.14435684781604
B            2.57798455223018        0.38324508081602        0.75231667795217
B            0.33478145856835        0.84306429692664        1.66486352488844
C            1.84688046536702        0.22709112303395        1.93865423620148
C            0.84556964029975        0.23889998185830        2.91189798152683
C            0.70166366778273       -0.16521588161313        4.21185283616716
C            0.57450716712689       -0.48936963890603        5.37137419550214
H            0.44044546272488       -0.79541516977630        6.36549212744758
H            1.86734046611060        1.57010337876623        6.09060938345437
H            2.25713261726886        2.13462814946272        6.46780455120475
H            0.63415851668083        0.81630475381026        8.58682735376653
H            0.31670864516677        0.33934647763147        9.11345028410058

 Bond Distances (Angstroems)
 ---------------------------
Be1-B2=1.6998        Be1-B3=1.7446        Be1-C4=2.1063        B2-Be1=1.6998        B2-C4=1.4022         B3-Be1=1.7446        
B3-C4=1.6555         B3-C5=1.4768         C4-Be1=2.1063        C4-B2=1.4022         C4-B3=1.6555         C4-C5=1.3964         
C5-B3=1.4768         C5-C4=1.3964         C5-C6=1.3689         C6-C5=1.3689         C6-C7=1.2107         C7-C6=1.2107         
C7-H8=1.0488         H8-C7=1.0488         H9-H10=0.7829        H10-H9=0.7829        H11-H12=0.7782       H12-H11=0.7782       
 H  H  Rav=0.7805 sigma=0.0023  Rmin=0.7782  Rmax=0.7829     2
 B  Be Rav=1.7222 sigma=0.0224  Rmin=1.6998  Rmax=1.7446     2
 C  H  Rav=1.0488 sigma=0.0000  Rmin=1.0488  Rmax=1.0488     1
 C  Be Rav=2.1063 sigma=0.0000  Rmin=2.1063  Rmax=2.1063     1
 C  B  Rav=1.5115 sigma=0.1063  Rmin=1.4022  Rmax=1.6555     3
 C  C  Rav=1.3253 sigma=0.0818  Rmin=1.2107  Rmax=1.3964     3

 selected bond angles (degree)
 --------------------
B3-Be1-B2= 91.39               C4-Be1-B2= 41.54               C4-Be1-B3= 49.84               C4-B2-Be1= 84.96               
C4-B3-Be1= 76.51               C5-B3-Be1=129.08               C5-B3-C4= 52.57                B2-C4-Be1= 53.50               
B3-C4-Be1= 53.65               B3-C4-B2=107.15                C5-C4-Be1=110.77               C5-C4-B2=164.27                
C5-C4-B3= 57.12                C4-C5-B3= 70.30                C6-C5-B3=152.41                C6-C5-C4=137.29                
C7-C6-C5=178.36                H8-C7-C6=178.02                

 selected dihedral angles (degree)
 ---------------------------------
C4-B2-Be1-B3=359.93           C4-B3-Be1-B2=  0.06           C5-B3-Be1-B2=  0.21           C5-B3-Be1-C4=  0.15           
B2-C4-Be1-B3=179.90           B3-C4-Be1-B2=180.10           C5-C4-Be1-B2=179.97           C5-C4-Be1-B3=359.87           
B3-C4-B2-Be1=  0.08           C5-C4-B2-Be1=359.89           Be1-C4-B3-C5=180.14           B2-C4-B3-Be1=359.92           
B2-C4-B3-C5=180.06            C5-C4-B3-Be1=179.86           C4-C5-B3-Be1=359.82           C6-C5-B3-Be1=180.46           
C6-C5-B3-C4=180.64            B3-C5-C4-Be1=  0.12           B3-C5-C4-B2=  0.21            C6-C5-C4-Be1=179.69           
C6-C5-C4-B2=179.78            C6-C5-C4-B3=179.57            C7-C6-C5-B3=287.49            C7-C6-C5-C4=108.37            
H8-C7-C6-C5=138.61            

 CMA Distance (Angstroems)
 ---------------------------
R(CMA):  3.1698
           -------------------------------------------------
          |                Final Singlepoint                |
           -------------------------------------------------

          ...................................................
          :                      SETUP                      :
          :.................................................:
          :  # basis functions                  33          :
          :  # atomic orbitals                  33          :
          :  # shells                           19          :
          :  # electrons                        29          :
          :  max. iterations                   250          :
          :  Hamiltonian                  GFN2-xTB          :
          :  restarted?                      false          :
          :  GBSA solvation                  false          :
          :  PC potential                    false          :
          :  electronic temp.          300.0000000     K    :
          :  accuracy                    1.0000000          :
          :  -> integral cutoff          0.2500000E+02      :
          :  -> integral neglect         0.1000000E-07      :
          :  -> SCF convergence          0.1000000E-05 Eh   :
          :  -> wf. convergence          0.1000000E-03 e    :
          :  Broyden damping             0.4000000          :
          ...................................................

 iter      E             dE          RMSdq      gap      omega  full diag
   1    -14.2207710 -0.142208E+02  0.119E-04    1.75       0.0  T
   2    -14.2207710  0.508788E-09  0.166E-04    1.75     173.5  T
   3    -14.2207710 -0.476280E-09  0.966E-05    1.75     298.9  T

   *** convergence criteria satisfied after 3 iterations ***

         #    Occupation            Energy/Eh            Energy/eV
      -------------------------------------------------------------
         1        2.0000           -0.5722348             -15.5713
       ...           ...                  ...                  ...
         9        2.0000           -0.4113974             -11.1947
        10        2.0000           -0.3782372             -10.2924
        11        2.0000           -0.3599357              -9.7943
        12        2.0000           -0.3389676              -9.2238
        13        2.0000           -0.3275154              -8.9121
        14        2.0000           -0.3024743              -8.2307
        15        1.0000           -0.2620227              -7.1300 (HOMO)
        16                         -0.1977596              -5.3813 (LUMO)
        17                         -0.1922640              -5.2318
        18                         -0.1554199              -4.2292
        19                         -0.1426603              -3.8820
        20                         -0.1170619              -3.1854
       ...                                ...                  ...
        33                          1.5050403              40.9542
      -------------------------------------------------------------
                  HL-Gap            0.0642630 Eh            1.7487 eV
             Fermi-level           -0.2560698 Eh           -6.9680 eV

 SCC (total)                   0 d,  0 h,  0 min,  0.002 sec
 SCC setup                      ...        0 min,  0.000 sec (  2.736%)
 Dispersion                     ...        0 min,  0.000 sec (  5.044%)
 classical contributions        ...        0 min,  0.000 sec (  6.495%)
 integral evaluation            ...        0 min,  0.000 sec ( 10.379%)
 iterations                     ...        0 min,  0.001 sec ( 36.512%)
 molecular gradient             ...        0 min,  0.001 sec ( 34.259%)
 printout                       ...        0 min,  0.000 sec (  3.759%)

         :::::::::::::::::::::::::::::::::::::::::::::::::::::
         ::                     SUMMARY                     ::
         :::::::::::::::::::::::::::::::::::::::::::::::::::::
         :: total energy             -13.862981714897 Eh    ::
         :: gradient norm              0.000993036929 Eh/a0 ::
         :: HOMO-LUMO gap              1.748686141372 eV    ::
         ::.................................................::
         :: SCC energy               -14.220771030152 Eh    ::
         :: -> isotropic ES           -0.011901198272 Eh    ::
         :: -> anisotropic ES          0.016635065448 Eh    ::
         :: -> anisotropic XC          0.005483221568 Eh    ::
         :: -> dispersion             -0.006128804259 Eh    ::
         :: repulsion energy           0.357800820082 Eh    ::
         :: add. restraining           0.000000000000 Eh    ::
         :: total charge               0.000000000000 e     ::
         :::::::::::::::::::::::::::::::::::::::::::::::::::::

           -------------------------------------------------
          |                Property Printout                |
           -------------------------------------------------

    * Orbital Energies and Occupations

         #    Occupation            Energy/Eh            Energy/eV
      -------------------------------------------------------------
         1        2.0000           -0.5722348             -15.5713
       ...           ...                  ...                  ...
         3        2.0000           -0.5135675             -13.9749
         4        2.0000           -0.4664888             -12.6938
         5        2.0000           -0.4571415             -12.4395
         6        2.0000           -0.4480948             -12.1933
         7        2.0000           -0.4368028             -11.8860
         8        2.0000           -0.4261247             -11.5954
         9        2.0000           -0.4113974             -11.1947
        10        2.0000           -0.3782372             -10.2924
        11        2.0000           -0.3599357              -9.7943
        12        2.0000           -0.3389676              -9.2238
        13        2.0000           -0.3275154              -8.9121
        14        2.0000           -0.3024743              -8.2307
        15        1.0000           -0.2620227              -7.1300 (HOMO)
        16                         -0.1977596              -5.3813 (LUMO)
        17                         -0.1922640              -5.2318
        18                         -0.1554199              -4.2292
        19                         -0.1426603              -3.8820
        20                         -0.1170619              -3.1854
        21                         -0.0256026              -0.6967
        22                         -0.0139437              -0.3794
        23                          0.0171959               0.4679
        24                          0.1102498               3.0001
        25                          0.1358452               3.6965
        26                          0.1467290               3.9927
       ...                                ...                  ...
        33                          1.5050403              40.9542
      -------------------------------------------------------------
                  HL-Gap            0.0642630 Eh            1.7487 eV
             Fermi-level           -0.2560698 Eh           -6.9680 eV

     #   Z          covCN         q      C6AA      α(0)
     1   4 Be       2.456     0.374    14.947     8.925
     2   5 B        1.834    -0.009    44.896    14.114
     3   5 B        2.714     0.040    20.916     7.667
     4   6 C        3.410    -0.203    28.476     8.209
     5   6 C        2.868    -0.063    29.553     8.911
     6   6 C        1.962    -0.037    32.051     9.143
     7   6 C        1.910    -0.131    34.792     9.526
     8   1 H        0.928     0.036     2.498     2.472
     9   1 H        0.794     0.012     2.920     2.686
    10   1 H        0.794    -0.019     3.482     2.933
    11   1 H        0.809     0.005     3.019     2.728
    12   1 H        0.809    -0.006     3.210     2.813

 Mol. C6AA /au·bohr⁶  :       2085.260428
 Mol. C8AA /au·bohr⁸  :      59639.531680
 Mol. α(0) /au        :         80.128125


Wiberg/Mayer (AO) data.
largest (>0.10) Wiberg bond orders for each atom

 ---------------------------------------------------------------------------
     #   Z sym  total        # sym  WBO       # sym  WBO       # sym  WBO
 ---------------------------------------------------------------------------
     1   4 Be   2.042 --     2 B    1.004     3 B    0.917     4 C    0.102
     2   5 B    2.980 --     4 C    1.660     1 Be   1.004     3 B    0.255
     3   5 B    3.136 --     5 C    1.161     1 Be   0.917     4 C    0.709
                             2 B    0.255
     4   6 C    3.774 --     2 B    1.660     5 C    1.231     3 B    0.709
                             1 Be   0.102
     5   6 C    3.700 --     6 C    1.241     4 C    1.231     3 B    1.161
     6   6 C    3.975 --     7 C    2.663     5 C    1.241
     7   6 C    3.819 --     6 C    2.663     8 H    0.975
     8   1 H    0.998 --     7 C    0.975
     9   1 H    1.000 --    10 H    0.988
    10   1 H    0.998 --     9 H    0.988
    11   1 H    1.000 --    12 H    0.998
    12   1 H    1.000 --    11 H    0.998
 ---------------------------------------------------------------------------

Topologies differ in total number of bonds
Writing topology from bond orders to xtbtopo.mol

molecular dipole:
                 x           y           z       tot (Debye)
 q only:       -0.210       0.750      -2.170
   full:       -0.061       0.497      -1.580       4.213
molecular quadrupole (traceless):
                xx          xy          yy          xz          yz          zz
 q only:        6.060       1.857      10.311      -7.276       0.186     -16.371
  q+dip:        0.932       1.991       4.837      -5.045      -3.956      -5.769
   full:       -0.529       3.029       9.151      -2.051      -2.044      -8.622
Note: The following floating-point exceptions are signalling: IEEE_UNDERFLOW_FLAG
normal termination of xtb

           -------------------------------------------------
          |                Geometry Summary                 |
           -------------------------------------------------

      molecular mass/u    :       83.7168865
   center of mass at/Å    :        1.1362482       0.2971835       2.8394333
  moments of inertia/u·Å² :        0.5299321E+02   0.3828793E+03   0.3993864E+03
rotational constants/cm⁻¹ :        0.3181093E+00   0.4402858E-01   0.4220883E-01

 * 10 selected distances

     #   Z          #   Z                                           value/Å
     1   4 Be       2   5 B                                       1.6997689
     1   4 Be       3   5 B                                       1.7445796 (max)
     2   5 B        4   6 C                                       1.4022462
     3   5 B        5   6 C                                       1.4768258
     4   6 C        5   6 C                                       1.3964120
     5   6 C        6   6 C                                       1.3689052
     6   6 C        7   6 C                                       1.2106752
     7   6 C        8   1 H                                       1.0487645
     9   1 H       10   1 H                                       0.7828809
    11   1 H       12   1 H                                       0.7782001 (min)

 * 5 distinct bonds (by element types)

   Z      Z             #   av. dist./Å        max./Å        min./Å
   1 H    1 H           2     0.7805405     0.7828809     0.7782001
   4 Be   5 B           2     1.7221742     1.7445796     1.6997689
   1 H    6 C           1     1.0487645     1.0487645     1.0487645
   5 B    6 C           2     1.4395360     1.4768258     1.4022462
   6 C    6 C           3     1.3253308     1.3964120     1.2106752


optimized geometry written to: xtbopt.xyz


           -------------------------------------------------
          | TOTAL ENERGY              -13.862981714897 Eh   |
          | GRADIENT NORM               0.000993036929 Eh/α |
          | HOMO-LUMO GAP               1.748686141372 eV   |
           -------------------------------------------------
########################################################################
[WARNING] Runtime exception occurred
-3- restart_readRestart: Dimension missmatch in restart file.
-2- restart_readRestart: Multiplicity missmatch in restart file.
-1- restart_readRestart: Number of electron missmatch in restart file.
########################################################################

------------------------------------------------------------------------
 * finished run on 2025/06/07 at 03:27:42.759     
------------------------------------------------------------------------
 total:
 * wall-time:     0 d,  0 h,  0 min,  0.290 sec
 *  cpu-time:     0 d,  0 h,  0 min,  4.171 sec
 * ratio c/w:    14.407 speedup
 SCF:
 * wall-time:     0 d,  0 h,  0 min,  0.021 sec
 *  cpu-time:     0 d,  0 h,  0 min,  0.277 sec
 * ratio c/w:    13.492 speedup
 ANC optimizer:
 * wall-time:     0 d,  0 h,  0 min,  0.266 sec
 *  cpu-time:     0 d,  0 h,  0 min,  3.858 sec
 * ratio c/w:    14.506 speedup

