      -----------------------------------------------------------      
     |                   =====================                   |     
     |                           x T B                           |     
     |                   =====================                   |     
     |                         S. Grimme                         |     
     |          Mulliken Center for Theoretical Chemistry        |     
     |                    University of Bonn                     |     
      -----------------------------------------------------------      

   * xtb version 6.5.1 (conda-forge) compiled by 'runner@Mac-1657629245115.local' on 2022-07-12

   xtb is free software: you can redistribute it and/or modify it under
   the terms of the GNU Lesser General Public License as published by
   the Free Software Foundation, either version 3 of the License, or
   (at your option) any later version.
   
   xtb is distributed in the hope that it will be useful,
   but WITHOUT ANY WARRANTY; without even the implied warranty of
   MERCHANTABILITY or FITNESS FOR A PARTICULAR PURPOSE.  See the
   GNU Lesser General Public License for more details.
   
   Cite this work as:
   * C. Bannwarth, E. Caldeweyher, S. Ehlert, A. Hansen, P. Pracht,
     J. Seibert, S. Spicher, S. Grimme, WIREs Comput. Mol. Sci., 2020, 11,
     e01493. DOI: 10.1002/wcms.1493
   
   for GFN2-xTB:
   * C. Bannwarth, S. Ehlert and S. Grimme., J. Chem. Theory Comput., 2019,
     15, 1652-1671. DOI: 10.1021/acs.jctc.8b01176
   for GFN1-xTB:
   * S. Grimme, C. Bannwarth, P. Shushkov, J. Chem. Theory Comput., 2017,
     13, 1989-2009. DOI: 10.1021/acs.jctc.7b00118
   for GFN0-xTB:
   * P. Pracht, E. Caldeweyher, S. Ehlert, S. Grimme, ChemRxiv, 2019, preprint.
     DOI: 10.26434/chemrxiv.8326202.v1
   for GFN-FF:
   * S. Spicher and S. Grimme, Angew. Chem. Int. Ed., 2020, 59, 15665-15673.
     DOI: 10.1002/anie.202004239
   
   for ALPB and GBSA implicit solvation:
   * S. Ehlert, M. Stahn, S. Spicher, S. Grimme, J. Chem. Theory Comput.,
     2021, 17, 4250-4261. DOI: 10.1021/acs.jctc.1c00471
   
   for DFT-D4:
   * E. Caldeweyher, C. Bannwarth and S. Grimme, J. Chem. Phys., 2017,
     147, 034112. DOI: 10.1063/1.4993215
   * E. Caldeweyher, S. Ehlert, A. Hansen, H. Neugebauer, S. Spicher,
     C. Bannwarth and S. Grimme, J. Chem. Phys., 2019, 150, 154122.
     DOI: 10.1063/1.5090222
   * E. Caldeweyher, J.-M. Mewes, S. Ehlert and S. Grimme, Phys. Chem. Chem. Phys.
     2020, 22, 8499-8512. DOI: 10.1039/D0CP00502A
   
   for sTDA-xTB:
   * S. Grimme and C. Bannwarth, J. Chem. Phys., 2016, 145, 054103.
     DOI: 10.1063/1.4959605
   
   in the mass-spec context:
   * V. Asgeirsson, C. Bauer and S. Grimme, Chem. Sci., 2017, 8, 4879.
     DOI: 10.1039/c7sc00601b
   * J. Koopman and S. Grimme, ACS Omega 2019, 4, 12, 15120-15133.
     DOI: 10.1021/acsomega.9b02011
   
   for metadynamics refer to:
   * S. Grimme, J. Chem. Theory Comput., 2019, 155, 2847-2862
     DOI: 10.1021/acs.jctc.9b00143
   
   for SPH calculations refer to:
   * S. Spicher and S. Grimme, J. Chem. Theory Comput., 2021, 17, 1701-1714
     DOI: 10.1021/acs.jctc.0c01306
   
   with help from (in alphabetical order)
   P. Atkinson, C. Bannwarth, F. Bohle, G. Brandenburg, E. Caldeweyher
   M. Checinski, S. Dohm, S. Ehlert, S. Ehrlich, I. Gerasimov, C. Hölzer
   A. Katbashev, J. Koopman, C. Lavigne, S. Lehtola, F. März, M. Müller,
   F. Musil, H. Neugebauer, J. Pisarek, C. Plett, P. Pracht, F. Pultar,
   J. Seibert, P. Shushkov, S. Spicher, M. Stahn, M. Steiner, T. Strunk,
   J. Stückrath, T. Rose, and J. Unsleber
   
 * started run on 2025/06/07 at 03:27:40.802     

           -------------------------------------------------
          |                Calculation Setup                |
           -------------------------------------------------

          program call               : xtb B2BeC2H4.xyz --gfn 2 --opt
          coordinate file            : B2BeC2H4.xyz
          omp threads                :                    16

   ID    Z sym.   atoms
    1    4 Be     1
    2    5 B      2, 3
    3    6 C      4, 5
    4    1 H      6-9

molecular fragmentation (1/2 indicates fragments):
111122222
# atoms in fragment 1/2:     4     5
 fragment masses (1/2) :       42.64       16.04
CMA distance (Bohr)    :   4.741
constraining FC (au)   :  0.0500

           -------------------------------------------------
          |                 G F N 2 - x T B                 |
           -------------------------------------------------

        Reference                      10.1021/acs.jctc.8b01176
      * Hamiltonian:
        H0-scaling (s, p, d)           1.850000    2.230000    2.230000
        zeta-weighting                 0.500000
      * Dispersion:
        s8                             2.700000
        a1                             0.520000
        a2                             5.000000
        s9                             5.000000
      * Repulsion:
        kExp                           1.500000    1.000000
        rExp                           1.000000
      * Coulomb:
        alpha                          2.000000
        third order                    shell-resolved
        anisotropic                    true
        a3                             3.000000
        a5                             4.000000
        cn-shift                       1.200000
        cn-exp                         4.000000
        max-rad                        5.000000


          ...................................................
          :                      SETUP                      :
          :.................................................:
          :  # basis functions                  24          :
          :  # atomic orbitals                  24          :
          :  # shells                           14          :
          :  # electrons                        20          :
          :  max. iterations                   250          :
          :  Hamiltonian                  GFN2-xTB          :
          :  restarted?                      false          :
          :  GBSA solvation                  false          :
          :  PC potential                    false          :
          :  electronic temp.          300.0000000     K    :
          :  accuracy                    1.0000000          :
          :  -> integral cutoff          0.2500000E+02      :
          :  -> integral neglect         0.1000000E-07      :
          :  -> SCF convergence          0.1000000E-05 Eh   :
          :  -> wf. convergence          0.1000000E-03 e    :
          :  Broyden damping             0.4000000          :
          ...................................................

 iter      E             dE          RMSdq      gap      omega  full diag
   1     11.6897713  0.116898E+02  0.237E+01    1.19       0.0  T
   2     -4.5294485 -0.162192E+02  0.226E+01    1.20       1.0  T
   3     -3.9887959  0.540653E+00  0.171E+01    1.83       1.0  T
   4     -4.0711938 -0.823980E-01  0.171E+01    0.73       1.0  T
   5     -8.0076919 -0.393650E+01  0.124E+01    0.54       1.0  T
   6     -8.1469628 -0.139271E+00  0.110E+01    0.40       1.0  T
   7     -8.3666802 -0.219717E+00  0.131E+01    0.36       1.0  T
   8     -7.3488782  0.101780E+01  0.189E+01    0.46       1.0  T
   9     -8.0379286 -0.689050E+00  0.113E+01    0.45       1.0  T
  10     -8.0435198 -0.559111E-02  0.114E+01    0.42       1.0  T
  11     -8.1826698 -0.139150E+00  0.130E+01    0.51       1.0  T
  12     -7.9895369  0.193133E+00  0.134E+01    0.59       1.0  T
  13     -8.0284067 -0.388698E-01  0.197E+01    0.65       1.0  T
  14     -8.2320723 -0.203666E+00  0.202E+01    0.24       1.0  T
  15      0.2603788  0.849245E+01  0.238E+01    0.94       1.0  T
  16     -7.4941365 -0.775452E+01  0.218E+01    0.28       1.0  T
  17     -6.9350133  0.559123E+00  0.153E+01    0.47       1.0  T
  18     -6.7235762  0.211437E+00  0.143E+01    0.37       1.0  T
  19     -6.4551110  0.268465E+00  0.146E+01    0.38       1.0  T
  20     -4.7217382  0.173337E+01  0.149E+01    0.41       1.0  T
  21     -6.1229126 -0.140117E+01  0.147E+01    0.39       1.0  T
  22     -7.8664087 -0.174350E+01  0.120E+01    0.32       1.0  T
  23     -7.8887915 -0.223828E-01  0.121E+01    0.32       1.0  T
  24     -7.9874385 -0.986470E-01  0.119E+01    0.30       1.0  T
  25     -8.1358428 -0.148404E+00  0.111E+01    0.24       1.0  T
  26     -7.5471128  0.588730E+00  0.109E+01    0.34       1.0  T
  27     -7.7533050 -0.206192E+00  0.895E+00    0.20       1.0  T
  28     -7.0958059  0.657499E+00  0.107E+01    0.30       1.0  T
  29     -8.6361243 -0.154032E+01  0.640E+00    0.27       1.0  T
  30     -8.6267838  0.934046E-02  0.665E+00    0.20       1.0  T
  31     -8.6285021 -0.171827E-02  0.615E+00    0.30       1.0  T
  32     -8.5716607  0.568413E-01  0.578E+00    0.38       1.0  T
  33     -8.5028712  0.687896E-01  0.630E+00    0.40       1.0  T
  34     -8.5460959 -0.432247E-01  0.459E+00    0.38       1.0  T
  35     -8.6515846 -0.105489E+00  0.325E+00    0.23       1.0  T
  36     -8.6486175  0.296707E-02  0.292E+00    0.24       1.0  T
  37     -8.6398130  0.880453E-02  0.361E+00    0.18       1.0  T
  38     -8.6402543 -0.441306E-03  0.358E+00    0.18       1.0  T
  39     -8.6220992  0.181551E-01  0.423E+00    0.14       1.0  T
  40     -8.6223319 -0.232637E-03  0.415E+00    0.13       1.0  T
  41     -8.6278306 -0.549877E-02  0.396E+00    0.14       1.0  T
  42     -8.6327106 -0.488000E-02  0.359E+00    0.18       1.0  T
  43     -8.6519837 -0.192730E-01  0.246E+00    0.20       1.0  T
  44     -8.6335329  0.184508E-01  0.206E+00    0.27       1.0  T
  45     -8.6393565 -0.582362E-02  0.189E+00    0.27       1.0  T
  46     -8.6525290 -0.131724E-01  0.193E+00    0.23       1.0  T
  47     -8.6465739  0.595512E-02  0.205E+00    0.22       1.0  T
  48     -8.6460053  0.568569E-03  0.202E+00    0.22       1.0  T
  49     -8.6430708  0.293454E-02  0.202E+00    0.21       1.0  T
  50     -8.6477345 -0.466375E-02  0.196E+00    0.22       1.0  T
  51     -8.6495071 -0.177256E-02  0.196E+00    0.23       1.0  T
  52     -8.6505903 -0.108319E-02  0.195E+00    0.24       1.0  T
  53     -8.6499926  0.597683E-03  0.196E+00    0.23       1.0  T
  54     -8.6496804  0.312161E-03  0.184E+00    0.22       1.0  T
  55     -8.6501077 -0.427342E-03  0.166E+00    0.22       1.0  T
  56     -8.6505843 -0.476530E-03  0.157E+00    0.21       1.0  T
  57     -8.6523662 -0.178188E-02  0.139E+00    0.22       1.0  T
  58     -8.6536792 -0.131305E-02  0.109E+00    0.22       1.0  T
  59     -8.6534767  0.202473E-03  0.103E+00    0.22       1.0  T
  60     -8.6533501  0.126649E-03  0.932E-01    0.22       1.0  T
  61     -8.6525851  0.765008E-03  0.886E-01    0.22       1.0  T
  62     -8.6521161  0.468943E-03  0.829E-01    0.22       1.0  T
  63     -8.6515720  0.544119E-03  0.795E-01    0.22       1.0  T
  64     -8.6523244 -0.752430E-03  0.734E-01    0.22       1.0  T
  65     -8.6527818 -0.457307E-03  0.682E-01    0.23       1.0  T
  66     -8.6532535 -0.471740E-03  0.614E-01    0.23       1.0  T
  67     -8.6534943 -0.240788E-03  0.535E-01    0.23       1.0  T
  68     -8.6537138 -0.219561E-03  0.455E-01    0.23       1.0  T
  69     -8.6539159 -0.202039E-03  0.384E-01    0.23       1.0  T
  70     -8.6541645 -0.248606E-03  0.310E-01    0.23       1.0  T
  71     -8.6543941 -0.229649E-03  0.240E-01    0.23       1.0  T
  72     -8.6545470 -0.152908E-03  0.188E-01    0.24       1.0  T
  73     -8.6546327 -0.856890E-04  0.154E-01    0.24       1.0  T
  74     -8.6546853 -0.525499E-04  0.129E-01    0.24       1.0  T
  75     -8.6547221 -0.368301E-04  0.114E-01    0.24       1.0  T
  76     -8.6547518 -0.296827E-04  0.102E-01    0.24       1.0  T
  77     -8.6547786 -0.268093E-04  0.878E-02    0.24       1.0  T
  78     -8.6547986 -0.199669E-04  0.699E-02    0.24       1.0  T
  79     -8.6548079 -0.933283E-05  0.542E-02    0.24       1.0  T
  80     -8.6548143 -0.640844E-05  0.413E-02    0.24       1.0  T
  81     -8.6548223 -0.798645E-05  0.305E-02    0.24       1.1  T
  82     -8.6548303 -0.799655E-05  0.228E-02    0.24       1.5  T
  83     -8.6548357 -0.540377E-05  0.179E-02    0.24       1.9  T
  84     -8.6548382 -0.250672E-05  0.133E-02    0.24       2.5  T
  85     -8.6548387 -0.445595E-06  0.757E-03    0.24       4.4  T
  86     -8.6548386  0.203444E-07  0.506E-03    0.24       6.6  T
  87     -8.6548386  0.144848E-07  0.417E-03    0.24       8.0  T
  88     -8.6548387 -0.575616E-07  0.353E-03    0.24       9.5  T
  89     -8.6548387 -0.142319E-07  0.148E-03    0.24      22.6  T
  90     -8.6548387 -0.987512E-09  0.131E-03    0.24      25.4  T
  91     -8.6548387 -0.350702E-08  0.905E-04    0.24      36.8  T
  92     -8.6548387 -0.249409E-08  0.600E-04    0.24      55.6  T

   *** convergence criteria satisfied after 92 iterations ***

         #    Occupation            Energy/Eh            Energy/eV
      -------------------------------------------------------------
         1        2.0000           -0.5762760             -15.6813
       ...           ...                  ...                  ...
         4        2.0000           -0.3818560             -10.3908
         5        2.0000           -0.3475396              -9.4570
         6        2.0000           -0.3019817              -8.2173
         7        2.0000           -0.2946897              -8.0189
         8        2.0000           -0.2876305              -7.8268
         9        2.0000           -0.2482688              -6.7557
        10        1.9812           -0.2234547              -6.0805 (HOMO)
        11        0.0188           -0.2146002              -5.8396 (LUMO)
        12                         -0.1995723              -5.4306
        13                         -0.1963033              -5.3417
        14                         -0.1757986              -4.7837
        15                         -0.1308421              -3.5604
       ...                                ...                  ...
        24                          0.5422276              14.7548
      -------------------------------------------------------------
                  HL-Gap            0.0088545 Eh            0.2409 eV
             Fermi-level           -0.2190275 Eh           -5.9600 eV

 SCC (total)                   0 d,  0 h,  0 min,  0.025 sec
 SCC setup                      ...        0 min,  0.000 sec (  0.260%)
 Dispersion                     ...        0 min,  0.000 sec (  0.305%)
 classical contributions        ...        0 min,  0.000 sec (  0.325%)
 integral evaluation            ...        0 min,  0.000 sec (  0.581%)
 iterations                     ...        0 min,  0.024 sec ( 96.287%)
 molecular gradient             ...        0 min,  0.001 sec (  2.092%)
 printout                       ...        0 min,  0.000 sec (  0.117%)

         :::::::::::::::::::::::::::::::::::::::::::::::::::::
         ::                     SUMMARY                     ::
         :::::::::::::::::::::::::::::::::::::::::::::::::::::
         :: total energy              -8.590552683363 Eh    ::
         :: gradient norm              0.330224730148 Eh/a0 ::
         :: HOMO-LUMO gap              0.240942949493 eV    ::
         ::.................................................::
         :: SCC energy                -8.654838696326 Eh    ::
         :: -> isotropic ES           -0.012173558519 Eh    ::
         :: -> anisotropic ES          0.006622010997 Eh    ::
         :: -> anisotropic XC         -0.017610880504 Eh    ::
         :: -> dispersion             -0.005582495337 Eh    ::
         :: repulsion energy           0.064286401935 Eh    ::
         :: add. restraining           0.000000000000 Eh    ::
         :: total charge               0.000000000000 e     ::
         :::::::::::::::::::::::::::::::::::::::::::::::::::::

      ----------------------------------------------------------- 
     |                   =====================                   |
     |                        A N C O P T                        |
     |                   =====================                   |
     |               Approximate Normal Coordinate               |
     |                Rational Function Optimizer                |
      ----------------------------------------------------------- 

          ...................................................
          :                      SETUP                      :
          :.................................................:
          :   optimization level            normal          :
          :   max. optcycles                   200          :
          :   ANC micro-cycles                  20          :
          :   degrees of freedom                21          :
          :.................................................:
          :   RF solver                   davidson          :
          :   write xtbopt.log                true          :
          :   linear?                        false          :
          :   energy convergence         0.5000000E-05 Eh   :
          :   grad. convergence          0.1000000E-02 Eh/α :
          :   maximium RF displ.         1.0000000          :
          :   Hlow (freq-cutoff)         0.1000000E-01      :
          :   Hmax (freq-cutoff)         5.0000000          :
          :   S6 in model hess.         20.0000000          :
          ...................................................

generating ANC from model Hessian ...
Using Lindh-Hessian (1995)
 Shifting diagonal of input Hessian by    9.6508916016964479E-003
 Lowest  eigenvalues of input Hessian
    0.000000    0.000000    0.000000    0.000000    0.000000    0.000000
    0.010000    0.010600    0.012488    0.013491    0.018959    0.028096
    0.030460    0.036520    0.054249    0.066222    0.075391    0.119642
 Highest eigenvalues
    0.249601    0.284668    0.311893    0.365380    0.474373    0.561903


........................................................................
.............................. CYCLE    1 ..............................
........................................................................
   1     -8.6548387 -0.865484E+01  0.393E-04    0.24       0.0  T
   2     -8.6548387  0.165584E-08  0.515E-04    0.24      64.7  T
   3     -8.6548387  0.426250E-08  0.796E-04    0.24      41.9  T
     SCC iter.                  ...        0 min,  0.001 sec
     gradient                   ...        0 min,  0.001 sec
 * total energy  :    -8.5905527 Eh     change        0.5465521E-08 Eh
   gradient norm :     0.3289290 Eh/α   predicted     0.0000000E+00 (-100.00%)
   displ. norm   :     0.8171357 α      lambda       -0.2527305E+00
   maximum displ.:     0.4263164 α      in ANC's #7, #16, #11, ...

........................................................................
.............................. CYCLE    2 ..............................
........................................................................
   1     -8.7561351 -0.875614E+01  0.448E+00    0.81       0.0  T
   2     -8.4435545  0.312581E+00  0.691E+00    0.78       1.0  T
   3     -8.3762598  0.672946E-01  0.541E+00    0.49       1.0  T
   4     -8.6976908 -0.321431E+00  0.337E+00    0.49       1.0  T
   5     -8.8029388 -0.105248E+00  0.199E+00    0.32       1.0  T
   6     -8.8247196 -0.217808E-01  0.120E+00    0.31       1.0  T
   7     -8.8255253 -0.805693E-03  0.119E+00    0.27       1.0  T
   8     -8.8141719  0.113534E-01  0.112E+00    0.32       1.0  T
   9     -8.8248317 -0.106598E-01  0.631E-01    0.26       1.0  T
  10     -8.8282747 -0.344292E-02  0.283E-01    0.26       1.0  T
  11     -8.8294582 -0.118357E-02  0.276E-01    0.27       1.0  T
  12     -8.8295506 -0.924095E-04  0.197E-01    0.27       1.0  T
  13     -8.8296069 -0.562357E-04  0.777E-02    0.27       1.0  T
  14     -8.8296277 -0.208232E-04  0.643E-02    0.27       1.0  T
  15     -8.8296433 -0.156023E-04  0.307E-02    0.27       1.1  T
  16     -8.8296486 -0.525027E-05  0.973E-03    0.27       3.4  T
  17     -8.8296493 -0.700303E-06  0.405E-03    0.27       8.2  T
  18     -8.8296494 -0.163508E-06  0.159E-03    0.27      20.9  T
  19     -8.8296494 -0.156052E-07  0.848E-04    0.27      39.3  T
  20     -8.8296494 -0.379705E-08  0.351E-04    0.27      95.0  T
     SCC iter.                  ...        0 min,  0.003 sec
     gradient                   ...        0 min,  0.001 sec
 * total energy  :    -8.7750353 Eh     change       -0.1844826E+00 Eh
   gradient norm :     0.2208210 Eh/α   predicted    -0.2107407E+00 (  14.23%)
   displ. norm   :     0.8282372 α      lambda       -0.1747362E+00
   maximum displ.:     0.3486208 α      in ANC's #19, #7, #14, ...

........................................................................
.............................. CYCLE    3 ..............................
........................................................................
   1     -9.0066601 -0.900666E+01  0.326E+00    0.63       0.0  T
   2     -8.8584640  0.148196E+00  0.493E+00    0.67       1.0  T
   3     -8.9718543 -0.113390E+00  0.296E+00    0.67       1.0  T
   4     -8.9574118  0.144424E-01  0.254E+00    0.59       1.0  T
   5     -9.0122672 -0.548553E-01  0.146E+00    0.56       1.0  T
   6     -9.0260657 -0.137985E-01  0.507E-01    0.62       1.0  T
   7     -9.0170870  0.897866E-02  0.974E-01    0.60       1.0  T
   8     -9.0261080 -0.902102E-02  0.444E-01    0.62       1.0  T
   9     -9.0276139 -0.150584E-02  0.954E-02    0.61       1.0  T
  10     -9.0276630 -0.490825E-04  0.695E-02    0.61       1.0  T
  11     -9.0276403  0.227069E-04  0.528E-02    0.61       1.0  T
  12     -9.0276634 -0.230967E-04  0.305E-02    0.61       1.1  T
  13     -9.0276634 -0.763884E-07  0.172E-02    0.61       1.9  T
  14     -9.0276663 -0.290828E-05  0.699E-03    0.61       4.8  T
  15     -9.0276669 -0.519785E-06  0.203E-03    0.61      16.4  T
  16     -9.0276669 -0.505816E-07  0.639E-04    0.61      52.1  T
  17     -9.0276669 -0.496352E-08  0.132E-04    0.61     253.0  T
     SCC iter.                  ...        0 min,  0.002 sec
     gradient                   ...        0 min,  0.000 sec
 * total energy  :    -8.8826621 Eh     change       -0.1076268E+00 Eh
   gradient norm :     0.1929020 Eh/α   predicted    -0.1473006E+00 (  36.86%)
   displ. norm   :     0.7090430 α      lambda       -0.9614772E-01
   maximum displ.:     0.4476377 α      in ANC's #7, #6, #5, ...

........................................................................
.............................. CYCLE    4 ..............................
........................................................................
   1     -9.0666190 -0.906662E+01  0.296E+00    1.03       0.0  T
   2     -9.0590953  0.752366E-02  0.231E+00    1.00       1.0  T
   3     -9.0535180  0.557737E-02  0.198E+00    1.05       1.0  T
   4     -9.0434113  0.101067E-01  0.154E+00    0.99       1.0  T
   5     -9.0680518 -0.246405E-01  0.496E-01    1.02       1.0  T
   6     -9.0710029 -0.295113E-02  0.267E-01    1.01       1.0  T
   7     -9.0718160 -0.813112E-03  0.136E-01    1.01       1.0  T
   8     -9.0718547 -0.386697E-04  0.863E-02    1.01       1.0  T
   9     -9.0718811 -0.264124E-04  0.651E-02    1.01       1.0  T
  10     -9.0719091 -0.280102E-04  0.376E-02    1.01       1.0  T
  11     -9.0719228 -0.136523E-04  0.533E-03    1.01       6.3  T
  12     -9.0719228 -0.559715E-07  0.285E-03    1.01      11.7  T
  13     -9.0719230 -0.121989E-06  0.320E-04    1.01     104.0  T
  14     -9.0719230  0.902567E-11  0.221E-04    1.01     150.7  T
     SCC iter.                  ...        0 min,  0.002 sec
     gradient                   ...        0 min,  0.000 sec
 * total energy  :    -8.9486913 Eh     change       -0.6602921E-01 Eh
   gradient norm :     0.1022177 Eh/α   predicted    -0.7224261E-01 (   9.41%)
   displ. norm   :     0.7543490 α      lambda       -0.6218130E-01
   maximum displ.:     0.3864383 α      in ANC's #7, #3, #14, ...

........................................................................
.............................. CYCLE    5 ..............................
........................................................................
   1     -9.1483346 -0.914833E+01  0.291E+00    1.35       0.0  T
   2     -9.1459897  0.234497E-02  0.205E+00    1.37       1.0  T
   3     -9.1160128  0.299768E-01  0.197E+00    1.34       1.0  T
   4     -9.1468344 -0.308216E-01  0.604E-01    1.39       1.0  T
   5     -9.1507863 -0.395185E-02  0.265E-01    1.35       1.0  T
   6     -9.1503711  0.415215E-03  0.253E-01    1.37       1.0  T
   7     -9.1511134 -0.742367E-03  0.164E-01    1.37       1.0  T
   8     -9.1514731 -0.359730E-03  0.359E-02    1.36       1.0  T
   9     -9.1514810 -0.787052E-05  0.176E-02    1.36       1.9  T
  10     -9.1514835 -0.247266E-05  0.280E-03    1.36      11.9  T
  11     -9.1514835 -0.541149E-09  0.204E-03    1.36      16.4  T
  12     -9.1514835 -0.265240E-07  0.276E-04    1.36     120.8  T
  13     -9.1514835 -0.521776E-09  0.111E-04    1.36     299.4  T
     SCC iter.                  ...        0 min,  0.002 sec
     gradient                   ...        0 min,  0.000 sec
 * total energy  :    -8.9897591 Eh     change       -0.4106781E-01 Eh
   gradient norm :     0.1146622 Eh/α   predicted    -0.4878254E-01 (  18.79%)
   displ. norm   :     0.7493076 α      lambda       -0.5889403E-01
   maximum displ.:     0.3862960 α      in ANC's #8, #5, #19, ...

........................................................................
.............................. CYCLE    6 ..............................
........................................................................
   1     -9.1879377 -0.918794E+01  0.233E+00    1.17       0.0  T
   2     -9.1731380  0.147997E-01  0.165E+00    1.10       1.0  T
   3     -9.1589971  0.141408E-01  0.172E+00    1.30       1.0  T
   4     -9.1857530 -0.267559E-01  0.102E+00    1.09       1.0  T
   5     -9.1857609 -0.791679E-05  0.881E-01    1.20       1.0  T
   6     -9.1965293 -0.107684E-01  0.151E-01    1.18       1.0  T
   7     -9.1955218  0.100754E-02  0.277E-01    1.15       1.0  T
   8     -9.1963677 -0.845884E-03  0.106E-01    1.17       1.0  T
   9     -9.1965338 -0.166160E-03  0.241E-02    1.18       1.4  T
  10     -9.1965414 -0.753991E-05  0.109E-02    1.18       3.1  T
  11     -9.1965418 -0.447557E-06  0.624E-03    1.18       5.3  T
  12     -9.1965422 -0.376565E-06  0.234E-03    1.18      14.3  T
  13     -9.1965422 -0.196216E-07  0.306E-04    1.18     109.0  T
  14     -9.1965422 -0.133351E-09  0.185E-04    1.18     180.3  T
     SCC iter.                  ...        0 min,  0.002 sec
     gradient                   ...        0 min,  0.000 sec
 * total energy  :    -9.0082210 Eh     change       -0.1846192E-01 Eh
   gradient norm :     0.1490399 Eh/α   predicted    -0.4598038E-01 ( 149.06%)
   displ. norm   :     0.4941683 α      lambda       -0.5011387E-01
   maximum displ.:     0.2482723 α      in ANC's #7, #13, #5, ...

........................................................................
.............................. CYCLE    7 ..............................
........................................................................
   1     -9.1823368 -0.918234E+01  0.165E+00    1.30       0.0  T
   2     -9.1799313  0.240550E-02  0.114E+00    1.24       1.0  T
   3     -9.1761430  0.378831E-02  0.958E-01    1.32       1.0  T
   4     -9.1708248  0.531823E-02  0.107E+00    1.22       1.0  T
   5     -9.1845192 -0.136944E-01  0.311E-01    1.28       1.0  T
   6     -9.1859132 -0.139404E-02  0.127E-01    1.28       1.0  T
   7     -9.1860109 -0.977180E-04  0.885E-02    1.27       1.0  T
   8     -9.1859315  0.793925E-04  0.907E-02    1.27       1.0  T
   9     -9.1860573 -0.125795E-03  0.245E-02    1.27       1.4  T
  10     -9.1860636 -0.625227E-05  0.113E-02    1.27       3.0  T
  11     -9.1860654 -0.178251E-05  0.164E-03    1.27      20.4  T
  12     -9.1860654 -0.109570E-07  0.577E-04    1.27      57.8  T
  13     -9.1860654 -0.128825E-08  0.189E-04    1.27     176.0  T
     SCC iter.                  ...        0 min,  0.002 sec
     gradient                   ...        0 min,  0.001 sec
 * total energy  :    -9.0345238 Eh     change       -0.2630281E-01 Eh
   gradient norm :     0.1024787 Eh/α   predicted    -0.3117588E-01 (  18.53%)
   displ. norm   :     0.5742297 α      lambda       -0.3856774E-01
   maximum displ.:     0.3587548 α      in ANC's #12, #1, #21, ...

........................................................................
.............................. CYCLE    8 ..............................
........................................................................
   1     -9.2300635 -0.923006E+01  0.207E+00    1.11       0.0  T
   2     -9.2111444  0.189191E-01  0.225E+00    0.99       1.0  T
   3     -9.2292694 -0.181250E-01  0.121E+00    1.10       1.0  T
   4     -9.2142288  0.150407E-01  0.135E+00    0.94       1.0  T
   5     -9.2367324 -0.225036E-01  0.305E-01    1.04       1.0  T
   6     -9.2373011 -0.568670E-03  0.221E-01    1.02       1.0  T
   7     -9.2377641 -0.463062E-03  0.132E-01    1.03       1.0  T
   8     -9.2379123 -0.148177E-03  0.511E-02    1.03       1.0  T
   9     -9.2379182 -0.592944E-05  0.225E-02    1.02       1.5  T
  10     -9.2379250 -0.682303E-05  0.108E-02    1.02       3.1  T
  11     -9.2379260 -0.979205E-06  0.263E-03    1.02      12.7  T
  12     -9.2379261 -0.815089E-07  0.749E-04    1.02      44.5  T
  13     -9.2379261 -0.409397E-08  0.187E-04    1.02     177.9  T
     SCC iter.                  ...        0 min,  0.002 sec
     gradient                   ...        0 min,  0.000 sec
 * total energy  :    -9.0579610 Eh     change       -0.2343719E-01 Eh
   gradient norm :     0.0777801 Eh/α   predicted    -0.2564255E-01 (   9.41%)
   displ. norm   :     0.5798280 α      lambda       -0.2816204E-01
   maximum displ.:     0.2763130 α      in ANC's #15, #12, #9, ...

........................................................................
.............................. CYCLE    9 ..............................
........................................................................
   1     -9.2477770 -0.924778E+01  0.174E+00    0.98       0.0  T
   2     -9.2440002  0.377686E-02  0.142E+00    0.92       1.0  T
   3     -9.2399984  0.400176E-02  0.120E+00    1.00       1.0  T
   4     -9.2228566  0.171418E-01  0.124E+00    0.90       1.0  T
   5     -9.2487220 -0.258655E-01  0.284E-01    0.95       1.0  T
   6     -9.2497021 -0.980036E-03  0.168E-01    0.94       1.0  T
   7     -9.2497596 -0.575595E-04  0.128E-01    0.93       1.0  T
   8     -9.2496656  0.940558E-04  0.132E-01    0.94       1.0  T
   9     -9.2499302 -0.264679E-03  0.165E-02    0.94       2.0  T
  10     -9.2499334 -0.319317E-05  0.870E-03    0.94       3.8  T
  11     -9.2499337 -0.242545E-06  0.546E-03    0.94       6.1  T
  12     -9.2499338 -0.137153E-06  0.100E-03    0.94      33.2  T
  13     -9.2499338 -0.123806E-07  0.164E-04    0.94     203.3  T
  14     -9.2499338 -0.392628E-10  0.809E-05    0.94     412.3  T
     SCC iter.                  ...        0 min,  0.002 sec
     gradient                   ...        0 min,  0.000 sec
 * total energy  :    -9.0745396 Eh     change       -0.1657856E-01 Eh
   gradient norm :     0.0617720 Eh/α   predicted    -0.1881506E-01 (  13.49%)
   displ. norm   :     0.7330075 α      lambda       -0.2693528E-01
   maximum displ.:     0.3503355 α      in ANC's #3, #8, #2, ...

........................................................................
.............................. CYCLE   10 ..............................
........................................................................
   1     -9.2604259 -0.926043E+01  0.224E+00    1.23       0.0  T
   2     -9.2598549  0.570977E-03  0.154E+00    1.24       1.0  T
   3     -9.1949548  0.649001E-01  0.224E+00    1.19       1.0  T
   4     -9.2553454 -0.603907E-01  0.737E-01    1.25       1.0  T
   5     -9.2612901 -0.594469E-02  0.163E-01    1.24       1.0  T
   6     -9.2611904  0.996930E-04  0.132E-01    1.23       1.0  T
   7     -9.2610593  0.131173E-03  0.135E-01    1.23       1.0  T
   8     -9.2612642 -0.204911E-03  0.835E-02    1.24       1.0  T
   9     -9.2613529 -0.886817E-04  0.742E-03    1.23       4.5  T
  10     -9.2613525  0.315520E-06  0.540E-03    1.23       6.2  T
  11     -9.2613528 -0.245970E-06  0.300E-03    1.23      11.1  T
  12     -9.2613529 -0.124352E-06  0.770E-04    1.23      43.3  T
  13     -9.2613529 -0.905802E-08  0.159E-04    1.23     209.1  T
     SCC iter.                  ...        0 min,  0.002 sec
     gradient                   ...        0 min,  0.000 sec
 * total energy  :    -9.0911751 Eh     change       -0.1663553E-01 Eh
   gradient norm :     0.0486413 Eh/α   predicted    -0.2070378E-01 (  24.46%)
   displ. norm   :     0.7188468 α      lambda       -0.2166267E-01
   maximum displ.:     0.3681735 α      in ANC's #8, #9, #5, ...

........................................................................
.............................. CYCLE   11 ..............................
........................................................................
   1     -9.2730338 -0.927303E+01  0.171E+00    1.81       0.0  T
   2     -9.2451201  0.279136E-01  0.176E+00    1.72       1.0  T
   3     -9.2574933 -0.123732E-01  0.140E+00    1.83       1.0  T
   4     -9.2777420 -0.202486E-01  0.456E-01    1.78       1.0  T
   5     -9.2790055 -0.126349E-02  0.115E-01    1.78       1.0  T
   6     -9.2790614 -0.559726E-04  0.736E-02    1.79       1.0  T
   7     -9.2789679  0.935537E-04  0.913E-02    1.79       1.0  T
   8     -9.2791052 -0.137327E-03  0.217E-02    1.79       1.5  T
   9     -9.2791109 -0.566782E-05  0.890E-03    1.79       3.7  T
  10     -9.2791107  0.185012E-06  0.695E-03    1.79       4.8  T
  11     -9.2791112 -0.501971E-06  0.108E-03    1.79      30.7  T
  12     -9.2791112 -0.624422E-08  0.300E-04    1.79     111.2  T
  13     -9.2791112 -0.120174E-08  0.745E-05    1.79     447.3  T
     SCC iter.                  ...        0 min,  0.002 sec
     gradient                   ...        0 min,  0.000 sec
 * total energy  :    -9.1108569 Eh     change       -0.1968177E-01 Eh
   gradient norm :     0.1083211 Eh/α   predicted    -0.1642834E-01 ( -16.53%)
   displ. norm   :     0.8118958 α      lambda       -0.3350620E-01
   maximum displ.:     0.4797602 α      in ANC's #9, #8, #5, ...

........................................................................
.............................. CYCLE   12 ..............................
........................................................................
   1     -9.2997518 -0.929975E+01  0.245E+00    2.38       0.0  T
   2     -9.2785539  0.211978E-01  0.204E+00    2.12       1.0  T
   3     -9.2498592  0.286947E-01  0.210E+00    2.37       1.0  T
   4     -9.3034259 -0.535667E-01  0.592E-01    2.26       1.0  T
   5     -9.3011039  0.232196E-02  0.526E-01    2.23       1.0  T
   6     -9.3051226 -0.401867E-02  0.340E-01    2.25       1.0  T
   7     -9.3067679 -0.164533E-02  0.113E-01    2.27       1.0  T
   8     -9.3068983 -0.130329E-03  0.444E-02    2.26       1.0  T
   9     -9.3068865  0.117684E-04  0.391E-02    2.26       1.0  T
  10     -9.3069081 -0.215915E-04  0.908E-03    2.26       3.7  T
  11     -9.3069094 -0.134139E-05  0.192E-03    2.26      17.4  T
  12     -9.3069094 -0.166214E-07  0.595E-04    2.26      56.0  T
  13     -9.3069094 -0.246157E-08  0.138E-04    2.26     241.8  T
     SCC iter.                  ...        0 min,  0.002 sec
     gradient                   ...        0 min,  0.001 sec
 * total energy  :    -9.1345728 Eh     change       -0.2371590E-01 Eh
   gradient norm :     0.1604235 Eh/α   predicted    -0.2779631E-01 (  17.21%)
   displ. norm   :     0.5998462 α      lambda       -0.4590483E-01
   maximum displ.:     0.3406065 α      in ANC's #12, #9, #15, ...

........................................................................
.............................. CYCLE   13 ..............................
........................................................................
   1     -9.3579613 -0.935796E+01  0.167E+00    2.63       0.0  T
   2     -9.3570839  0.877427E-03  0.105E+00    2.63       1.0  T
   3     -9.2900822  0.670017E-01  0.172E+00    2.53       1.0  T
   4     -9.3516775 -0.615953E-01  0.657E-01    2.63       1.0  T
   5     -9.3577269 -0.604944E-02  0.362E-01    2.61       1.0  T
   6     -9.3589863 -0.125940E-02  0.142E-01    2.65       1.0  T
   7     -9.3589003  0.860519E-04  0.152E-01    2.63       1.0  T
   8     -9.3590223 -0.122055E-03  0.116E-01    2.64       1.0  T
   9     -9.3591979 -0.175594E-03  0.134E-02    2.63       2.5  T
  10     -9.3591986 -0.632220E-06  0.108E-02    2.63       3.1  T
  11     -9.3591988 -0.215467E-06  0.270E-03    2.63      12.4  T
  12     -9.3591990 -0.174770E-06  0.470E-04    2.63      70.9  T
  13     -9.3591990 -0.115997E-08  0.131E-04    2.63     254.2  T
     SCC iter.                  ...        0 min,  0.002 sec
     gradient                   ...        0 min,  0.001 sec
 * total energy  :    -9.1640091 Eh     change       -0.2943633E-01 Eh
   gradient norm :     0.1547351 Eh/α   predicted    -0.3121105E-01 (   6.03%)
   displ. norm   :     0.5240710 α      lambda       -0.5563159E-01
   maximum displ.:     0.1974368 α      in ANC's #12, #17, #3, ...

........................................................................
.............................. CYCLE   14 ..............................
........................................................................
   1     -9.3739928 -0.937399E+01  0.138E+00    2.82       0.0  T
   2     -9.3675449  0.644790E-02  0.996E-01    2.91       1.0  T
   3     -9.3306310  0.369139E-01  0.161E+00    2.73       1.0  T
   4     -9.3677231 -0.370920E-01  0.704E-01    2.82       1.0  T
   5     -9.3754171 -0.769409E-02  0.183E-01    2.85       1.0  T
   6     -9.3756268 -0.209659E-03  0.119E-01    2.86       1.0  T
   7     -9.3754657  0.161134E-03  0.130E-01    2.85       1.0  T
   8     -9.3756644 -0.198753E-03  0.417E-02    2.85       1.0  T
   9     -9.3756711 -0.662804E-05  0.121E-02    2.85       2.8  T
  10     -9.3756711 -0.156892E-07  0.743E-03    2.85       4.5  T
  11     -9.3756722 -0.115971E-05  0.247E-03    2.85      13.5  T
  12     -9.3756722 -0.190186E-07  0.350E-04    2.85      95.2  T
  13     -9.3756722 -0.151726E-09  0.151E-04    2.85     221.2  T
     SCC iter.                  ...        0 min,  0.002 sec
     gradient                   ...        0 min,  0.000 sec
 * total energy  :    -9.1898141 Eh     change       -0.2580499E-01 Eh
   gradient norm :     0.0949985 Eh/α   predicted    -0.3545543E-01 (  37.40%)
   displ. norm   :     0.7540200 α      lambda       -0.5649010E-01
   maximum displ.:     0.3433127 α      in ANC's #9, #11, #3, ...

........................................................................
.............................. CYCLE   15 ..............................
........................................................................
   1     -9.3623485 -0.936235E+01  0.214E+00    2.86       0.0  T
   2     -9.3499910  0.123575E-01  0.166E+00    2.73       1.0  T
   3     -9.3071435  0.428475E-01  0.215E+00    2.74       1.0  T
   4     -9.3565091 -0.493656E-01  0.679E-01    2.89       1.0  T
   5     -9.3631549 -0.664580E-02  0.328E-01    2.81       1.0  T
   6     -9.3646065 -0.145164E-02  0.125E-01    2.84       1.0  T
   7     -9.3646476 -0.410636E-04  0.903E-02    2.83       1.0  T
   8     -9.3646360  0.115935E-04  0.397E-02    2.83       1.0  T
   9     -9.3646634 -0.273887E-04  0.774E-03    2.83       4.3  T
  10     -9.3646627  0.659969E-06  0.853E-03    2.83       3.9  T
  11     -9.3646639 -0.114994E-05  0.119E-03    2.83      27.9  T
  12     -9.3646639 -0.328025E-07  0.179E-04    2.83     186.1  T
  13     -9.3646639 -0.328058E-10  0.870E-05    2.83     383.1  T
     SCC iter.                  ...        0 min,  0.002 sec
     gradient                   ...        0 min,  0.000 sec
 * total energy  :    -9.0683657 Eh     change        0.1214484E+00 Eh
   gradient norm :     0.7825639 Eh/α   predicted    -0.4430363E-01 (-136.48%)
   displ. norm   :     0.4161153 α      lambda       -0.3098215E+00
   maximum displ.:     0.1699238 α      in ANC's #11, #12, #21, ...

........................................................................
.............................. CYCLE   16 ..............................
........................................................................
   1     -9.3567335 -0.935673E+01  0.111E+00    2.71       0.0  T
   2     -9.3482427  0.849081E-02  0.990E-01    2.56       1.0  T
   3     -9.3476012  0.641472E-03  0.103E+00    2.76       1.0  T
   4     -9.3546293 -0.702809E-02  0.508E-01    2.68       1.0  T
   5     -9.3567899 -0.216060E-02  0.351E-01    2.68       1.0  T
   6     -9.3590117 -0.222183E-02  0.600E-02    2.68       1.0  T
   7     -9.3590306 -0.188985E-04  0.406E-02    2.68       1.0  T
   8     -9.3590214  0.916994E-05  0.344E-02    2.68       1.0  T
   9     -9.3590408 -0.193928E-04  0.698E-03    2.68       4.8  T
  10     -9.3590414 -0.585602E-06  0.228E-03    2.68      14.6  T
  11     -9.3590414 -0.428806E-08  0.138E-03    2.68      24.2  T
  12     -9.3590414 -0.337170E-07  0.226E-04    2.68     147.4  T
  13     -9.3590414 -0.427386E-09  0.392E-05    2.68     851.1  T
     SCC iter.                  ...        0 min,  0.002 sec
     gradient                   ...        0 min,  0.000 sec
 * total energy  :    -9.1866189 Eh     change       -0.1182531E+00 Eh
   gradient norm :     0.0919574 Eh/α   predicted    -0.1817339E+00 (  53.68%)
   displ. norm   :     0.4852420 α      lambda       -0.3737125E-01
   maximum displ.:     0.2229606 α      in ANC's #3, #9, #4, ...

........................................................................
.............................. CYCLE   17 ..............................
........................................................................
   1     -9.3952503 -0.939525E+01  0.167E+00    2.78       0.0  T
   2     -9.3914970  0.375334E-02  0.115E+00    2.71       1.0  T
   3     -9.3423725  0.491245E-01  0.193E+00    2.86       1.0  T
   4     -9.3935350 -0.511625E-01  0.426E-01    2.78       1.0  T
   5     -9.3944245 -0.889514E-03  0.322E-01    2.75       1.0  T
   6     -9.3961177 -0.169315E-02  0.995E-02    2.76       1.0  T
   7     -9.3961852 -0.675471E-04  0.646E-02    2.77       1.0  T
   8     -9.3961903 -0.503817E-05  0.428E-02    2.76       1.0  T
   9     -9.3962188 -0.285607E-04  0.910E-03    2.77       3.7  T
  10     -9.3962188  0.210379E-07  0.446E-03    2.77       7.5  T
  11     -9.3962190 -0.244713E-06  0.145E-03    2.77      23.0  T
  12     -9.3962191 -0.154500E-07  0.502E-04    2.77      66.4  T
  13     -9.3962191 -0.166821E-08  0.947E-05    2.77     352.0  T
     SCC iter.                  ...        0 min,  0.002 sec
     gradient                   ...        0 min,  0.000 sec
 * total energy  :    -9.1898444 Eh     change       -0.3225590E-02 Eh
   gradient norm :     0.1280837 Eh/α   predicted    -0.2308534E-01 ( 615.69%)
   displ. norm   :     0.2879890 α      lambda       -0.2750521E-01
   maximum displ.:     0.1359665 α      in ANC's #12, #2, #4, ...

........................................................................
.............................. CYCLE   18 ..............................
........................................................................
   1     -9.3760697 -0.937607E+01  0.986E-01    2.73       0.0  T
   2     -9.3746334  0.143625E-02  0.697E-01    2.75       1.0  T
   3     -9.3576844  0.169490E-01  0.110E+00    2.65       1.0  T
   4     -9.3724088 -0.147244E-01  0.455E-01    2.75       1.0  T
   5     -9.3756499 -0.324107E-02  0.259E-01    2.74       1.0  T
   6     -9.3765602 -0.910234E-03  0.509E-02    2.72       1.0  T
   7     -9.3765650 -0.481691E-05  0.482E-02    2.73       1.0  T
   8     -9.3765516  0.134109E-04  0.411E-02    2.73       1.0  T
   9     -9.3765794 -0.278845E-04  0.538E-03    2.73       6.2  T
  10     -9.3765799 -0.444324E-06  0.187E-03    2.73      17.8  T
  11     -9.3765799 -0.569471E-07  0.729E-04    2.73      45.7  T
  12     -9.3765799 -0.407253E-08  0.107E-04    2.73     311.4  T
     SCC iter.                  ...        0 min,  0.002 sec
     gradient                   ...        0 min,  0.000 sec
 * total energy  :    -9.1993532 Eh     change       -0.9508768E-02 Eh
   gradient norm :     0.0305447 Eh/α   predicted    -0.1489321E-01 (  56.63%)
   displ. norm   :     0.2050273 α      lambda       -0.2702419E-02
   maximum displ.:     0.1043902 α      in ANC's #1, #2, #11, ...

........................................................................
.............................. CYCLE   19 ..............................
........................................................................
   1     -9.3804196 -0.938042E+01  0.534E-01    2.71       0.0  T
   2     -9.3804157  0.395421E-05  0.341E-01    2.72       1.0  T
   3     -9.3792430  0.117266E-02  0.318E-01    2.69       1.0  T
   4     -9.3804034 -0.116042E-02  0.790E-02    2.72       1.0  T
   5     -9.3804482 -0.448001E-04  0.403E-02    2.71       1.0  T
   6     -9.3804406  0.762226E-05  0.325E-02    2.72       1.0  T
   7     -9.3804248  0.158426E-04  0.391E-02    2.71       1.0  T
   8     -9.3804544 -0.296341E-04  0.450E-03    2.71       7.4  T
   9     -9.3804545 -0.769128E-07  0.146E-03    2.71      22.8  T
  10     -9.3804545 -0.142446E-07  0.503E-04    2.71      66.2  T
  11     -9.3804545 -0.962507E-09  0.139E-04    2.71     239.4  T
     SCC iter.                  ...        0 min,  0.003 sec
     gradient                   ...        0 min,  0.001 sec
 * total energy  :    -9.1999040 Eh     change       -0.5507981E-03 Eh
   gradient norm :     0.0256385 Eh/α   predicted    -0.1408008E-02 ( 155.63%)
   displ. norm   :     0.1816249 α      lambda       -0.2390092E-02
   maximum displ.:     0.1075058 α      in ANC's #2, #1, #6, ...

........................................................................
.............................. CYCLE   20 ..............................
........................................................................
   1     -9.3874777 -0.938748E+01  0.652E-01    2.75       0.0  T
   2     -9.3874004  0.773124E-04  0.423E-01    2.76       1.0  T
   3     -9.3793243  0.807608E-02  0.588E-01    2.73       1.0  T
   4     -9.3873129 -0.798861E-02  0.116E-01    2.75       1.0  T
   5     -9.3874883 -0.175405E-03  0.439E-02    2.75       1.0  T
   6     -9.3874907 -0.244793E-05  0.375E-02    2.76       1.0  T
   7     -9.3874984 -0.766495E-05  0.217E-02    2.75       1.5  T
   8     -9.3875035 -0.507511E-05  0.111E-02    2.75       3.0  T
   9     -9.3875055 -0.199542E-05  0.357E-03    2.75       9.3  T
  10     -9.3875057 -0.180219E-06  0.817E-04    2.75      40.8  T
  11     -9.3875057 -0.381754E-08  0.372E-04    2.75      89.7  T
     SCC iter.                  ...        0 min,  0.002 sec
     gradient                   ...        0 min,  0.000 sec
 * total energy  :    -9.2000293 Eh     change       -0.1252734E-03 Eh
   gradient norm :     0.0325406 Eh/α   predicted    -0.1234468E-02 ( 885.42%)
   displ. norm   :     0.1708813 α      lambda       -0.2305089E-02
   maximum displ.:     0.0706683 α      in ANC's #7, #3, #9, ...
 * RMSD in coord.:     1.5774837 α      energy gain  -0.6094766E+00 Eh

generating ANC from model Hessian ...
Using Lindh-Hessian (1995)
 Shifting diagonal of input Hessian by    1.0145327018090077E-002
 Lowest  eigenvalues of input Hessian
    0.010000    0.010135    0.000000    0.000000    0.000000    0.000000
    0.000000    0.000000    0.010503    0.010594    0.011683    0.019227
    0.019814    0.066916    0.070950    0.116903    0.147188    0.207380
 Highest eigenvalues
    0.552351    0.626113    0.845668    1.095291    1.141497    1.805069


........................................................................
.............................. CYCLE   21 ..............................
........................................................................
   1     -9.3779135 -0.937791E+01  0.610E-01    2.71       0.0  T
   2     -9.3777688  0.144633E-03  0.414E-01    2.72       1.0  T
   3     -9.3729468  0.482207E-02  0.588E-01    2.72       1.0  T
   4     -9.3765616 -0.361486E-02  0.260E-01    2.69       1.0  T
   5     -9.3779592 -0.139761E-02  0.504E-02    2.72       1.0  T
   6     -9.3779831 -0.238413E-04  0.321E-02    2.72       1.0  T
   7     -9.3779810  0.205791E-05  0.238E-02    2.72       1.4  T
   8     -9.3779903 -0.929103E-05  0.431E-03    2.72       7.7  T
   9     -9.3779903 -0.102658E-07  0.292E-03    2.72      11.4  T
  10     -9.3779904 -0.112134E-06  0.697E-04    2.72      47.8  T
  11     -9.3779904 -0.751159E-09  0.247E-04    2.72     134.9  T
     SCC iter.                  ...        0 min,  0.002 sec
     gradient                   ...        0 min,  0.001 sec
 * total energy  :    -9.2003101 Eh     change       -0.2807751E-03 Eh
   gradient norm :     0.0177723 Eh/α   predicted     0.0000000E+00 (-100.00%)
   displ. norm   :     0.1829111 α      lambda       -0.1340296E-02
   maximum displ.:     0.1094628 α      in ANC's #5, #6, #4, ...

........................................................................
.............................. CYCLE   22 ..............................
........................................................................
   1     -9.3825130 -0.938251E+01  0.360E-01    2.74       0.0  T
   2     -9.3824857  0.272995E-04  0.241E-01    2.73       1.0  T
   3     -9.3804691  0.201661E-02  0.345E-01    2.75       1.0  T
   4     -9.3823795 -0.191045E-02  0.876E-02    2.74       1.0  T
   5     -9.3825167 -0.137141E-03  0.339E-02    2.73       1.0  T
   6     -9.3825220 -0.537387E-05  0.278E-02    2.73       1.2  T
   7     -9.3825273 -0.528686E-05  0.809E-03    2.73       4.1  T
   8     -9.3825282 -0.834046E-06  0.241E-03    2.73      13.8  T
   9     -9.3825282 -0.477831E-07  0.121E-03    2.73      27.6  T
  10     -9.3825282 -0.208340E-07  0.191E-04    2.73     174.2  T
  11     -9.3825282 -0.116920E-09  0.693E-05    2.73     480.9  T
     SCC iter.                  ...        0 min,  0.002 sec
     gradient                   ...        0 min,  0.001 sec
 * total energy  :    -9.2012380 Eh     change       -0.9279183E-03 Eh
   gradient norm :     0.0080707 Eh/α   predicted    -0.6925708E-03 ( -25.36%)
   displ. norm   :     0.2129254 α      lambda       -0.5791365E-03
   maximum displ.:     0.1533604 α      in ANC's #5, #4, #6, ...

........................................................................
.............................. CYCLE   23 ..............................
........................................................................
   1     -9.3844877 -0.938449E+01  0.299E-01    2.75       0.0  T
   2     -9.3844638  0.239524E-04  0.195E-01    2.74       1.0  T
   3     -9.3829395  0.152427E-02  0.296E-01    2.74       1.0  T
   4     -9.3843041 -0.136462E-02  0.979E-02    2.75       1.0  T
   5     -9.3844981 -0.193973E-03  0.168E-02    2.74       2.0  T
   6     -9.3844969  0.124776E-05  0.121E-02    2.74       2.7  T
   7     -9.3844976 -0.703400E-06  0.946E-03    2.74       3.5  T
   8     -9.3844989 -0.134136E-05  0.224E-03    2.74      14.9  T
   9     -9.3844989 -0.279086E-07  0.130E-03    2.74      25.6  T
  10     -9.3844990 -0.285277E-07  0.141E-04    2.74     235.8  T
  11     -9.3844990 -0.487983E-10  0.459E-05    2.74     726.3  T
     SCC iter.                  ...        0 min,  0.002 sec
     gradient                   ...        0 min,  0.000 sec
 * total energy  :    -9.2015989 Eh     change       -0.3609384E-03 Eh
   gradient norm :     0.0031920 Eh/α   predicted    -0.3026993E-03 ( -16.14%)
   displ. norm   :     0.1425097 α      lambda       -0.1460624E-03
   maximum displ.:     0.1087682 α      in ANC's #5, #4, #3, ...

........................................................................
.............................. CYCLE   24 ..............................
........................................................................
   1     -9.3844109 -0.938441E+01  0.170E-01    2.75       0.0  T
   2     -9.3844021  0.878334E-05  0.111E-01    2.75       1.0  T
   3     -9.3839264  0.475699E-03  0.178E-01    2.74       1.0  T
   4     -9.3843788 -0.452408E-03  0.420E-02    2.75       1.0  T
   5     -9.3844117 -0.329314E-04  0.142E-02    2.75       2.4  T
   6     -9.3844133 -0.157703E-05  0.843E-03    2.75       4.0  T
   7     -9.3844138 -0.497044E-06  0.290E-03    2.75      11.5  T
   8     -9.3844138 -0.272711E-07  0.717E-04    2.75      46.5  T
   9     -9.3844138 -0.275367E-08  0.315E-04    2.75     105.9  T
     SCC iter.                  ...        0 min,  0.002 sec
     gradient                   ...        0 min,  0.000 sec
 * total energy  :    -9.2017105 Eh     change       -0.1115914E-03 Eh
   gradient norm :     0.0028033 Eh/α   predicted    -0.7451352E-04 ( -33.23%)
   displ. norm   :     0.1379425 α      lambda       -0.1050878E-03
   maximum displ.:     0.0997656 α      in ANC's #5, #4, #3, ...

........................................................................
.............................. CYCLE   25 ..............................
........................................................................
   1     -9.3842204 -0.938422E+01  0.151E-01    2.76       0.0  T
   2     -9.3842176  0.279674E-05  0.960E-02    2.76       1.0  T
   3     -9.3839718  0.245787E-03  0.119E-01    2.75       1.0  T
   4     -9.3842162 -0.244448E-03  0.193E-02    2.76       1.7  T
   5     -9.3842203 -0.401191E-05  0.100E-02    2.76       3.3  T
   6     -9.3842209 -0.603581E-06  0.636E-03    2.76       5.2  T
   7     -9.3842211 -0.247830E-06  0.232E-03    2.76      14.3  T
   8     -9.3842212 -0.814699E-07  0.449E-04    2.76      74.2  T
   9     -9.3842212 -0.138900E-08  0.158E-04    2.76     211.0  T
     SCC iter.                  ...        0 min,  0.001 sec
     gradient                   ...        0 min,  0.000 sec
 * total energy  :    -9.2017947 Eh     change       -0.8419008E-04 Eh
   gradient norm :     0.0027479 Eh/α   predicted    -0.5354520E-04 ( -36.40%)
   displ. norm   :     0.1511856 α      lambda       -0.8648640E-04
   maximum displ.:     0.1089536 α      in ANC's #5, #4, #3, ...

........................................................................
.............................. CYCLE   26 ..............................
........................................................................
   1     -9.3840905 -0.938409E+01  0.167E-01    2.76       0.0  T
   2     -9.3840887  0.178263E-05  0.107E-01    2.76       1.0  T
   3     -9.3838987  0.190004E-03  0.950E-02    2.75       1.0  T
   4     -9.3840735 -0.174794E-03  0.348E-02    2.76       1.0  T
   5     -9.3840913 -0.178205E-04  0.873E-03    2.76       3.8  T
   6     -9.3840901  0.121713E-05  0.103E-02    2.76       3.2  T
   7     -9.3840914 -0.134829E-05  0.192E-03    2.76      17.4  T
   8     -9.3840915 -0.531039E-07  0.503E-04    2.76      66.3  T
   9     -9.3840915 -0.193319E-08  0.195E-04    2.76     170.9  T
     SCC iter.                  ...        0 min,  0.001 sec
     gradient                   ...        0 min,  0.000 sec
 * total energy  :    -9.2018638 Eh     change       -0.6913518E-04 Eh
   gradient norm :     0.0025208 Eh/α   predicted    -0.4423235E-04 ( -36.02%)
   displ. norm   :     0.1545283 α      lambda       -0.6583203E-04
   maximum displ.:     0.1125005 α      in ANC's #5, #4, #3, ...

........................................................................
.............................. CYCLE   27 ..............................
........................................................................
   1     -9.3841907 -0.938419E+01  0.173E-01    2.76       0.0  T
   2     -9.3841872  0.355066E-05  0.113E-01    2.76       1.0  T
   3     -9.3839168  0.270424E-03  0.124E-01    2.76       1.0  T
   4     -9.3841644 -0.247620E-03  0.423E-02    2.76       1.0  T
   5     -9.3841909 -0.265339E-04  0.131E-02    2.76       2.5  T
   6     -9.3841910 -0.842936E-07  0.108E-02    2.76       3.1  T
   7     -9.3841924 -0.144479E-05  0.137E-03    2.76      24.3  T
   8     -9.3841925 -0.265661E-07  0.342E-04    2.76      97.5  T
   9     -9.3841925 -0.111196E-09  0.181E-04    2.76     184.5  T
     SCC iter.                  ...        0 min,  0.001 sec
     gradient                   ...        0 min,  0.001 sec
 * total energy  :    -9.2019162 Eh     change       -0.5232868E-04 Eh
   gradient norm :     0.0017691 Eh/α   predicted    -0.3370285E-04 ( -35.59%)
   displ. norm   :     0.2229635 α      lambda       -0.4323851E-04
   maximum displ.:     0.1601351 α      in ANC's #5, #4, #3, ...

........................................................................
.............................. CYCLE   28 ..............................
........................................................................
   1     -9.3840648 -0.938406E+01  0.258E-01    2.76       0.0  T
   2     -9.3840564  0.839196E-05  0.169E-01    2.76       1.0  T
   3     -9.3833735  0.682922E-03  0.192E-01    2.76       1.0  T
   4     -9.3840164 -0.642970E-03  0.581E-02    2.76       1.0  T
   5     -9.3840652 -0.487669E-04  0.188E-02    2.76       1.8  T
   6     -9.3840652 -0.111458E-07  0.158E-02    2.76       2.1  T
   7     -9.3840681 -0.289644E-05  0.294E-03    2.76      11.3  T
   8     -9.3840682 -0.142222E-06  0.570E-04    2.76      58.4  T
   9     -9.3840682  0.612092E-09  0.358E-04    2.76      93.1  T
     SCC iter.                  ...        0 min,  0.001 sec
     gradient                   ...        0 min,  0.001 sec
 * total energy  :    -9.2019600 Eh     change       -0.4383856E-04 Eh
   gradient norm :     0.0016862 Eh/α   predicted    -0.2209672E-04 ( -49.60%)
   displ. norm   :     0.1081966 α      lambda       -0.1510277E-04
   maximum displ.:     0.0861881 α      in ANC's #5, #4, #3, ...

........................................................................
.............................. CYCLE   29 ..............................
........................................................................
   1     -9.3848275 -0.938483E+01  0.128E-01    2.76       0.0  T
   2     -9.3848264  0.109869E-05  0.846E-02    2.76       1.0  T
   3     -9.3846768  0.149627E-03  0.833E-02    2.76       1.0  T
   4     -9.3848273 -0.150509E-03  0.878E-03    2.76       3.8  T
   5     -9.3848277 -0.366582E-06  0.532E-03    2.76       6.3  T
   6     -9.3848277 -0.685310E-07  0.360E-03    2.76       9.3  T
   7     -9.3848278 -0.122154E-06  0.161E-03    2.76      20.7  T
   8     -9.3848279 -0.351304E-07  0.296E-04    2.76     112.7  T
   9     -9.3848279 -0.356186E-09  0.980E-05    2.76     340.1  T
     SCC iter.                  ...        0 min,  0.001 sec
     gradient                   ...        0 min,  0.001 sec
 * total energy  :    -9.2019705 Eh     change       -0.1047432E-04 Eh
   gradient norm :     0.0018782 Eh/α   predicted    -0.7589353E-05 ( -27.54%)
   displ. norm   :     0.2459213 α      lambda       -0.2369345E-04
   maximum displ.:     0.1680899 α      in ANC's #5, #4, #3, ...

........................................................................
.............................. CYCLE   30 ..............................
........................................................................
   1     -9.3835945 -0.938359E+01  0.328E-01    2.77       0.0  T
   2     -9.3835901  0.437452E-05  0.209E-01    2.77       1.0  T
   3     -9.3830425  0.547562E-03  0.165E-01    2.76       1.0  T
   4     -9.3835930 -0.550419E-03  0.233E-02    2.77       1.4  T
   5     -9.3835900  0.300394E-05  0.236E-02    2.77       1.4  T
   6     -9.3835946 -0.459739E-05  0.110E-02    2.77       3.0  T
   7     -9.3835959 -0.130875E-05  0.304E-03    2.77      11.0  T
   8     -9.3835960 -0.153150E-06  0.701E-04    2.77      47.6  T
   9     -9.3835960 -0.255297E-08  0.259E-04    2.77     128.9  T
     SCC iter.                  ...        0 min,  0.001 sec
     gradient                   ...        0 min,  0.001 sec
 * total energy  :    -9.2019770 Eh     change       -0.6538484E-05 Eh
   gradient norm :     0.0033595 Eh/α   predicted    -0.1216409E-04 (  86.04%)
   displ. norm   :     0.0420272 α      lambda       -0.1641599E-04
   maximum displ.:     0.0251574 α      in ANC's #4, #5, #3, ...

........................................................................
.............................. CYCLE   31 ..............................
........................................................................
   1     -9.3841400 -0.938414E+01  0.688E-02    2.77       0.0  T
   2     -9.3841396  0.368526E-06  0.437E-02    2.77       1.0  T
   3     -9.3841011  0.384827E-04  0.438E-02    2.77       1.0  T
   4     -9.3841398 -0.386484E-04  0.593E-03    2.77       5.6  T
   5     -9.3841398 -0.732210E-07  0.521E-03    2.77       6.4  T
   6     -9.3841400 -0.174943E-06  0.215E-03    2.77      15.5  T
   7     -9.3841401 -0.621201E-07  0.278E-04    2.77     119.8  T
   8     -9.3841401 -0.282881E-09  0.133E-04    2.77     251.6  T
     SCC iter.                  ...        0 min,  0.001 sec
     gradient                   ...        0 min,  0.001 sec
 * total energy  :    -9.2019870 Eh     change       -0.9934684E-05 Eh
   gradient norm :     0.0012692 Eh/α   predicted    -0.8223199E-05 ( -17.23%)
   displ. norm   :     0.0329672 α      lambda       -0.4527857E-05
   maximum displ.:     0.0252600 α      in ANC's #5, #1, #3, ...

........................................................................
.............................. CYCLE   32 ..............................
........................................................................
   1     -9.3843930 -0.938439E+01  0.544E-02    2.77       0.0  T
   2     -9.3843924  0.610319E-06  0.352E-02    2.77       1.0  T
   3     -9.3843568  0.356032E-04  0.483E-02    2.76       1.0  T
   4     -9.3843924 -0.355819E-04  0.744E-03    2.76       4.5  T
   5     -9.3843930 -0.611954E-06  0.435E-03    2.77       7.7  T
   6     -9.3843932 -0.170610E-06  0.145E-03    2.77      22.9  T
   7     -9.3843932 -0.123955E-07  0.587E-04    2.77      56.8  T
   8     -9.3843932 -0.377024E-08  0.184E-04    2.77     181.0  T
     SCC iter.                  ...        0 min,  0.001 sec
     gradient                   ...        0 min,  0.001 sec
 * total energy  :    -9.2019919 Eh     change       -0.4918784E-05 Eh
   gradient norm :     0.0004545 Eh/α   predicted    -0.2266558E-05 ( -53.92%)
   displ. norm   :     0.1063794 α      lambda       -0.6763048E-05
   maximum displ.:     0.0773347 α      in ANC's #5, #1, #3, ...

   *** GEOMETRY OPTIMIZATION CONVERGED AFTER 32 ITERATIONS ***

------------------------------------------------------------------------
 total energy gain   :        -0.6114392 Eh     -383.6839 kcal/mol
 total RMSD          :         1.9283731 a0        1.0205 Å
 total power (kW/mol):       -50.1666677 (step)********** (real)
------------------------------------------------------------------------

 ANCopt (total)                0 d,  0 h,  0 min,  0.087 sec
 optimizer setup                ...        0 min,  0.000 sec (  0.061%)
 model hessian                  ...        0 min,  0.000 sec (  0.418%)
 ANC generation                 ...        0 min,  0.000 sec (  0.183%)
 coordinate transformation      ...        0 min,  0.000 sec (  0.079%)
 single point calculation       ...        0 min,  0.084 sec ( 96.416%)
 optimization log               ...        0 min,  0.001 sec (  0.809%)
 hessian update                 ...        0 min,  0.001 sec (  0.843%)
 rational function              ...        0 min,  0.001 sec (  0.629%)

================
 final structure:
================
9
 xtb: 6.5.1 (conda-forge)
Be           0.38587461767456       -0.12018505484314        0.38521336214001
B            2.07725602628045       -0.11983355772209        0.52202114283447
B            0.33490665227091        0.14310785035377        2.08493833619941
C            1.89681575490645        0.09122218310488        1.87904411796267
C            1.39940204917574        0.31242450101200        3.23710142186594
H            1.57103455950580       -0.48024165375692        3.96859658472668
H            1.59275164662135        1.29007306687675        3.68468717547714
H            0.45874089888882        0.52770458310147        6.53350750453325
H            0.13921779467591       -0.01627191812656        6.98689035426058

 Bond Distances (Angstroems)
 ---------------------------
Be1-B2=1.6969        Be1-B3=1.7208        Be1-C4=2.1352        B2-Be1=1.6969        B2-C4=1.3851         B3-Be1=1.7208        
B3-C4=1.5763         B3-C5=1.5778         C4-Be1=2.1352        C4-B2=1.3851         C4-B3=1.5763         C4-C5=1.4631         
C5-B3=1.5778         C5-C4=1.4631         C5-H6=1.0922         C5-H7=1.0925         H6-C5=1.0922         H7-C5=1.0925         
H8-H9=0.7769         H9-H8=0.7769         
 H  H  Rav=0.7769 sigma=0.0000  Rmin=0.7769  Rmax=0.7769     1
 B  Be Rav=1.7088 sigma=0.0119  Rmin=1.6969  Rmax=1.7208     2
 C  H  Rav=1.0923 sigma=0.0001  Rmin=1.0922  Rmax=1.0925     2
 C  Be Rav=2.1352 sigma=0.0000  Rmin=2.1352  Rmax=2.1352     1
 C  B  Rav=1.5131 sigma=0.0905  Rmin=1.3851  Rmax=1.5778     3
 C  C  Rav=1.4631 sigma=0.0000  Rmin=1.4631  Rmax=1.4631     1

 selected bond angles (degree)
 --------------------
B3-Be1-B2= 87.13               C4-Be1-B2= 40.38               C4-Be1-B3= 46.74               C4-B2-Be1= 87.09               
C4-B3-Be1= 80.60               C5-B3-Be1=135.87               C5-B3-C4= 55.28                B2-C4-Be1= 52.53               
B3-C4-Be1= 52.66               B3-C4-B2=105.19                C5-C4-Be1=115.07               C5-C4-B2=167.60                
C5-C4-B3= 62.41                C4-C5-B3= 62.31                H6-C5-B3=121.15                H6-C5-C4=117.29                
H7-C5-B3=120.97                H7-C5-C4=117.09                H7-C5-H6=110.32                

 selected dihedral angles (degree)
 ---------------------------------
C4-B2-Be1-B3=  0.04           C4-B3-Be1-B2=359.97           C5-B3-Be1-B2=  0.22           C5-B3-Be1-C4=  0.26           
B2-C4-Be1-B3=180.05           B3-C4-Be1-B2=179.95           C5-C4-Be1-B2=179.74           C5-C4-Be1-B3=359.79           
B3-C4-B2-Be1=359.96           C5-C4-B2-Be1=358.90           Be1-C4-B3-C5=180.22           B2-C4-B3-Be1=  0.04           
B2-C4-B3-C5=180.26            C5-C4-B3-Be1=179.78           C4-C5-B3-Be1=359.69           H6-C5-B3-Be1=252.96           
H6-C5-B3-C4=253.27            H7-C5-B3-Be1=106.24           H7-C5-B3-C4=106.55            B3-C5-C4-Be1=  0.19           
B3-C5-C4-B2=  1.16            H6-C5-C4-Be1=112.93           H6-C5-C4-B2=113.89            H6-C5-C4-B3=112.74            
H7-C5-C4-Be1=247.59           H7-C5-C4-B2=248.55            H7-C5-C4-B3=247.40            

 CMA Distance (Angstroems)
 ---------------------------
R(CMA):  2.5024
           -------------------------------------------------
          |                Final Singlepoint                |
           -------------------------------------------------

          ...................................................
          :                      SETUP                      :
          :.................................................:
          :  # basis functions                  24          :
          :  # atomic orbitals                  24          :
          :  # shells                           14          :
          :  # electrons                        20          :
          :  max. iterations                   250          :
          :  Hamiltonian                  GFN2-xTB          :
          :  restarted?                      false          :
          :  GBSA solvation                  false          :
          :  PC potential                    false          :
          :  electronic temp.          300.0000000     K    :
          :  accuracy                    1.0000000          :
          :  -> integral cutoff          0.2500000E+02      :
          :  -> integral neglect         0.1000000E-07      :
          :  -> SCF convergence          0.1000000E-05 Eh   :
          :  -> wf. convergence          0.1000000E-03 e    :
          :  Broyden damping             0.4000000          :
          ...................................................

 iter      E             dE          RMSdq      gap      omega  full diag
   1     -9.3843932 -0.938439E+01  0.853E-05    2.77       0.0  T
   2     -9.3843932  0.325167E-09  0.135E-04    2.77     246.2  T
   3     -9.3843932 -0.323277E-09  0.634E-05    2.77     525.5  T

   *** convergence criteria satisfied after 3 iterations ***

         #    Occupation            Energy/Eh            Energy/eV
      -------------------------------------------------------------
         1        2.0000           -0.5416460             -14.7389
       ...           ...                  ...                  ...
         4        2.0000           -0.4343788             -11.8200
         5        2.0000           -0.4171420             -11.3510
         6        2.0000           -0.3918905             -10.6639
         7        2.0000           -0.3307172              -8.9993
         8        2.0000           -0.3085788              -8.3969
         9        2.0000           -0.3071611              -8.3583
        10        2.0000           -0.2879037              -7.8343 (HOMO)
        11                         -0.1862828              -5.0690 (LUMO)
        12                         -0.1721108              -4.6834
        13                         -0.1386939              -3.7741
        14                         -0.1311976              -3.5701
        15                          0.0086244               0.2347
       ...                                ...                  ...
        24                          1.4768358              40.1867
      -------------------------------------------------------------
                  HL-Gap            0.1016209 Eh            2.7652 eV
             Fermi-level           -0.2370933 Eh           -6.4516 eV

 SCC (total)                   0 d,  0 h,  0 min,  0.001 sec
 SCC setup                      ...        0 min,  0.000 sec (  2.790%)
 Dispersion                     ...        0 min,  0.000 sec (  6.453%)
 classical contributions        ...        0 min,  0.000 sec (  2.145%)
 integral evaluation            ...        0 min,  0.000 sec ( 11.862%)
 iterations                     ...        0 min,  0.000 sec ( 36.041%)
 molecular gradient             ...        0 min,  0.000 sec ( 38.053%)
 printout                       ...        0 min,  0.000 sec (  1.841%)

         :::::::::::::::::::::::::::::::::::::::::::::::::::::
         ::                     SUMMARY                     ::
         :::::::::::::::::::::::::::::::::::::::::::::::::::::
         :: total energy              -9.201991870488 Eh    ::
         :: gradient norm              0.000454702401 Eh/a0 ::
         :: HOMO-LUMO gap              2.765245327108 eV    ::
         ::.................................................::
         :: SCC energy                -9.384393201325 Eh    ::
         :: -> isotropic ES           -0.010168262371 Eh    ::
         :: -> anisotropic ES          0.006798211545 Eh    ::
         :: -> anisotropic XC         -0.010597126645 Eh    ::
         :: -> dispersion             -0.003581160312 Eh    ::
         :: repulsion energy           0.182407296090 Eh    ::
         :: add. restraining           0.000000000000 Eh    ::
         :: total charge              -0.000000000000 e     ::
         :::::::::::::::::::::::::::::::::::::::::::::::::::::

           -------------------------------------------------
          |                Property Printout                |
           -------------------------------------------------

    * Orbital Energies and Occupations

         #    Occupation            Energy/Eh            Energy/eV
      -------------------------------------------------------------
         1        2.0000           -0.5416460             -14.7389
         2        2.0000           -0.4846218             -13.1872
         3        2.0000           -0.4543078             -12.3623
         4        2.0000           -0.4343788             -11.8200
         5        2.0000           -0.4171420             -11.3510
         6        2.0000           -0.3918905             -10.6639
         7        2.0000           -0.3307172              -8.9993
         8        2.0000           -0.3085788              -8.3969
         9        2.0000           -0.3071611              -8.3583
        10        2.0000           -0.2879037              -7.8343 (HOMO)
        11                         -0.1862828              -5.0690 (LUMO)
        12                         -0.1721108              -4.6834
        13                         -0.1386939              -3.7741
        14                         -0.1311976              -3.5701
        15                          0.0086244               0.2347
        16                          0.0104944               0.2856
        17                          0.1340470               3.6476
        18                          0.1731945               4.7129
        19                          0.3014392               8.2026
        20                          0.3052373               8.3059
        21                          0.3595023               9.7826
       ...                                ...                  ...
        24                          1.4768358              40.1867
      -------------------------------------------------------------
                  HL-Gap            0.1016209 Eh            2.7652 eV
             Fermi-level           -0.2370933 Eh           -6.4516 eV

     #   Z          covCN         q      C6AA      α(0)
     1   4 Be       2.419     0.367    15.020     8.947
     2   5 B        1.876    -0.020    45.183    14.154
     3   5 B        2.766     0.037    20.878     7.643
     4   6 C        3.385    -0.230    29.832     8.490
     5   6 C        3.726    -0.105    22.614     6.790
     6   1 H        0.924    -0.024     3.507     2.929
     7   1 H        0.924    -0.025     3.521     2.935
     8   1 H        0.813     0.006     3.010     2.724
     9   1 H        0.813    -0.006     3.208     2.812

 Mol. C6AA /au·bohr⁶  :       1033.308044
 Mol. C8AA /au·bohr⁸  :      30367.860006
 Mol. α(0) /au        :         57.423305


Wiberg/Mayer (AO) data.
largest (>0.10) Wiberg bond orders for each atom

 ---------------------------------------------------------------------------
     #   Z sym  total        # sym  WBO       # sym  WBO       # sym  WBO
 ---------------------------------------------------------------------------
     1   4 Be   2.142 --     2 B    1.016     3 B    0.937     4 C    0.146
     2   5 B    3.366 --     4 C    1.848     1 Be   1.016     3 B    0.405
     3   5 B    3.133 --     1 Be   0.937     5 C    0.922     4 C    0.864
                             2 B    0.405
     4   6 C    3.898 --     2 B    1.848     5 C    1.038     3 B    0.864
                             1 Be   0.146
     5   6 C    3.947 --     4 C    1.038     6 H    0.960     7 H    0.960
                             3 B    0.922
     6   1 H    0.999 --     5 C    0.960
     7   1 H    0.999 --     5 C    0.960
     8   1 H    1.000 --     9 H    0.999
     9   1 H    1.000 --     8 H    0.999
 ---------------------------------------------------------------------------

Topologies differ in total number of bonds
Writing topology from bond orders to xtbtopo.mol

molecular dipole:
                 x           y           z       tot (Debye)
 q only:       -1.031      -0.203      -1.424
   full:       -0.695      -0.133      -0.926       2.963
molecular quadrupole (traceless):
                xx          xy          yy          xz          yz          zz
 q only:        0.259      -0.681       6.310      -8.135      -1.082      -6.569
  q+dip:       -1.194       0.378       2.757      -2.640      -0.568      -1.563
   full:       -2.303       0.597       6.414      -0.077      -1.291      -4.111

           -------------------------------------------------
          |                Geometry Summary                 |
           -------------------------------------------------

      molecular mass/u    :       58.6874740
   center of mass at/Å    :        1.2428062       0.0911326       1.9500929
  moments of inertia/u·Å² :        0.3203009E+02   0.1223772E+03   0.1500019E+03
rotational constants/cm⁻¹ :        0.5263060E+00   0.1377514E+00   0.1123828E+00

 * 9 selected distances

     #   Z          #   Z                                           value/Å
Note: The following floating-point exceptions are signalling: IEEE_UNDERFLOW_FLAG
normal termination of xtb
     1   4 Be       2   5 B                                       1.6969054
     1   4 Be       3   5 B                                       1.7207517 (max)
     2   5 B        4   6 C                                       1.3851408
     3   5 B        4   6 C                                       1.5762757
     3   5 B        5   6 C                                       1.5777512
     4   6 C        5   6 C                                       1.4631032
     5   6 C        6   1 H                                       1.0921826
     5   6 C        7   1 H                                       1.0924807
     8   1 H        9   1 H                                       0.7768923 (min)

 * 5 distinct bonds (by element types)

   Z      Z             #   av. dist./Å        max./Å        min./Å
   1 H    1 H           1     0.7768923     0.7768923     0.7768923
   4 Be   5 B           2     1.7088286     1.7207517     1.6969054
   1 H    6 C           2     1.0923316     1.0924807     1.0921826
   5 B    6 C           3     1.5130559     1.5777512     1.3851408
   6 C    6 C           1     1.4631032     1.4631032     1.4631032


optimized geometry written to: xtbopt.xyz


           -------------------------------------------------
          | TOTAL ENERGY               -9.201991870488 Eh   |
          | GRADIENT NORM               0.000454702401 Eh/α |
          | HOMO-LUMO GAP               2.765245327108 eV   |
           -------------------------------------------------
########################################################################
[WARNING] Runtime exception occurred
-3- restart_readRestart: Dimension missmatch in restart file.
-2- restart_readRestart: Multiplicity missmatch in restart file.
-1- restart_readRestart: Number of electron missmatch in restart file.
########################################################################

------------------------------------------------------------------------
 * finished run on 2025/06/07 at 03:27:40.919     
------------------------------------------------------------------------
 total:
 * wall-time:     0 d,  0 h,  0 min,  0.117 sec
 *  cpu-time:     0 d,  0 h,  0 min,  1.538 sec
 * ratio c/w:    13.191 speedup
 SCF:
 * wall-time:     0 d,  0 h,  0 min,  0.025 sec
 *  cpu-time:     0 d,  0 h,  0 min,  0.321 sec
 * ratio c/w:    12.863 speedup
 ANC optimizer:
 * wall-time:     0 d,  0 h,  0 min,  0.089 sec
 *  cpu-time:     0 d,  0 h,  0 min,  1.184 sec
 * ratio c/w:    13.350 speedup

