      -----------------------------------------------------------      
     |                   =====================                   |     
     |                           x T B                           |     
     |                   =====================                   |     
     |                         S. Grimme                         |     
     |          Mulliken Center for Theoretical Chemistry        |     
     |                    University of Bonn                     |     
      -----------------------------------------------------------      

   * xtb version 6.5.1 (conda-forge) compiled by 'runner@Mac-1657629245115.local' on 2022-07-12

   xtb is free software: you can redistribute it and/or modify it under
   the terms of the GNU Lesser General Public License as published by
   the Free Software Foundation, either version 3 of the License, or
   (at your option) any later version.
   
   xtb is distributed in the hope that it will be useful,
   but WITHOUT ANY WARRANTY; without even the implied warranty of
   MERCHANTABILITY or FITNESS FOR A PARTICULAR PURPOSE.  See the
   GNU Lesser General Public License for more details.
   
   Cite this work as:
   * C. Bannwarth, E. Caldeweyher, S. Ehlert, A. Hansen, P. Pracht,
     J. Seibert, S. Spicher, S. Grimme, WIREs Comput. Mol. Sci., 2020, 11,
     e01493. DOI: 10.1002/wcms.1493
   
   for GFN2-xTB:
   * C. Bannwarth, S. Ehlert and S. Grimme., J. Chem. Theory Comput., 2019,
     15, 1652-1671. DOI: 10.1021/acs.jctc.8b01176
   for GFN1-xTB:
   * S. Grimme, C. Bannwarth, P. Shushkov, J. Chem. Theory Comput., 2017,
     13, 1989-2009. DOI: 10.1021/acs.jctc.7b00118
   for GFN0-xTB:
   * P. Pracht, E. Caldeweyher, S. Ehlert, S. Grimme, ChemRxiv, 2019, preprint.
     DOI: 10.26434/chemrxiv.8326202.v1
   for GFN-FF:
   * S. Spicher and S. Grimme, Angew. Chem. Int. Ed., 2020, 59, 15665-15673.
     DOI: 10.1002/anie.202004239
   
   for ALPB and GBSA implicit solvation:
   * S. Ehlert, M. Stahn, S. Spicher, S. Grimme, J. Chem. Theory Comput.,
     2021, 17, 4250-4261. DOI: 10.1021/acs.jctc.1c00471
   
   for DFT-D4:
   * E. Caldeweyher, C. Bannwarth and S. Grimme, J. Chem. Phys., 2017,
     147, 034112. DOI: 10.1063/1.4993215
   * E. Caldeweyher, S. Ehlert, A. Hansen, H. Neugebauer, S. Spicher,
     C. Bannwarth and S. Grimme, J. Chem. Phys., 2019, 150, 154122.
     DOI: 10.1063/1.5090222
   * E. Caldeweyher, J.-M. Mewes, S. Ehlert and S. Grimme, Phys. Chem. Chem. Phys.
     2020, 22, 8499-8512. DOI: 10.1039/D0CP00502A
   
   for sTDA-xTB:
   * S. Grimme and C. Bannwarth, J. Chem. Phys., 2016, 145, 054103.
     DOI: 10.1063/1.4959605
   
   in the mass-spec context:
   * V. Asgeirsson, C. Bauer and S. Grimme, Chem. Sci., 2017, 8, 4879.
     DOI: 10.1039/c7sc00601b
   * J. Koopman and S. Grimme, ACS Omega 2019, 4, 12, 15120-15133.
     DOI: 10.1021/acsomega.9b02011
   
   for metadynamics refer to:
   * S. Grimme, J. Chem. Theory Comput., 2019, 155, 2847-2862
     DOI: 10.1021/acs.jctc.9b00143
   
   for SPH calculations refer to:
   * S. Spicher and S. Grimme, J. Chem. Theory Comput., 2021, 17, 1701-1714
     DOI: 10.1021/acs.jctc.0c01306
   
   with help from (in alphabetical order)
   P. Atkinson, C. Bannwarth, F. Bohle, G. Brandenburg, E. Caldeweyher
   M. Checinski, S. Dohm, S. Ehlert, S. Ehrlich, I. Gerasimov, C. Hölzer
   A. Katbashev, J. Koopman, C. Lavigne, S. Lehtola, F. März, M. Müller,
   F. Musil, H. Neugebauer, J. Pisarek, C. Plett, P. Pracht, F. Pultar,
   J. Seibert, P. Shushkov, S. Spicher, M. Stahn, M. Steiner, T. Strunk,
   J. Stückrath, T. Rose, and J. Unsleber
   
 * started run on 2025/06/07 at 03:27:45.440     

           -------------------------------------------------
          |                Calculation Setup                |
           -------------------------------------------------

          program call               : xtb B3BeCH6.xyz --gfn 2 --opt
          coordinate file            : B3BeCH6.xyz
          omp threads                :                    16

   ID    Z sym.   atoms
    1    4 Be     1
    2    5 B      2-4
    3    6 C      5
    4    1 H      6-11

molecular fragmentation (1/2 indicates fragments):
12222222222
# atoms in fragment 1/2:     1    10
 fragment masses (1/2) :        9.01       50.49
CMA distance (Bohr)    :   6.182
constraining FC (au)   :  0.0500

           -------------------------------------------------
          |                 G F N 2 - x T B                 |
           -------------------------------------------------

        Reference                      10.1021/acs.jctc.8b01176
      * Hamiltonian:
        H0-scaling (s, p, d)           1.850000    2.230000    2.230000
        zeta-weighting                 0.500000
      * Dispersion:
        s8                             2.700000
        a1                             0.520000
        a2                             5.000000
        s9                             5.000000
      * Repulsion:
        kExp                           1.500000    1.000000
        rExp                           1.000000
      * Coulomb:
        alpha                          2.000000
        third order                    shell-resolved
        anisotropic                    true
        a3                             3.000000
        a5                             4.000000
        cn-shift                       1.200000
        cn-exp                         4.000000
        max-rad                        5.000000


          ...................................................
          :                      SETUP                      :
          :.................................................:
          :  # basis functions                  26          :
          :  # atomic orbitals                  26          :
          :  # shells                           16          :
          :  # electrons                        21          :
          :  max. iterations                   250          :
          :  Hamiltonian                  GFN2-xTB          :
          :  restarted?                      false          :
          :  GBSA solvation                  false          :
          :  PC potential                    false          :
          :  electronic temp.          300.0000000     K    :
          :  accuracy                    1.0000000          :
          :  -> integral cutoff          0.2500000E+02      :
          :  -> integral neglect         0.1000000E-07      :
          :  -> SCF convergence          0.1000000E-05 Eh   :
          :  -> wf. convergence          0.1000000E-03 e    :
          :  Broyden damping             0.4000000          :
          ...................................................

 iter      E             dE          RMSdq      gap      omega  full diag
   1     13.0893703  0.130894E+02  0.216E+01    0.77       0.0  T
   2      0.9861265 -0.121032E+02  0.230E+01    1.41       1.0  T
   3     -1.6902073 -0.267633E+01  0.184E+01    0.77       1.0  T
   4     -3.7258868 -0.203568E+01  0.149E+01    0.29       1.0  T
   5     -4.1524266 -0.426540E+00  0.137E+01    0.10       1.0  T
   6     -4.4247858 -0.272359E+00  0.135E+01    0.31       1.0  T
   7     -6.5098117 -0.208503E+01  0.111E+01    0.39       1.0  T
   8     -8.2185182 -0.170871E+01  0.863E+00    0.09       1.0  T
   9     -7.0602251  0.115829E+01  0.687E+00    0.34       1.0  T
  10     -7.4702570 -0.410032E+00  0.713E+00    0.27       1.0  T
  11     -7.4796868 -0.942985E-02  0.712E+00    0.27       1.0  T
  12     -6.9465972  0.533090E+00  0.790E+00    0.33       1.0  T
  13     12.6750403  0.196216E+02  0.239E+01    0.19       1.0  T
  14      7.4946840 -0.518036E+01  0.188E+01    0.40       1.0  T
  15     -7.9953265 -0.154900E+02  0.755E+00    0.36       1.0  T
  16     -7.8395770  0.155749E+00  0.798E+00    0.38       1.0  T
  17     -8.1911052 -0.351528E+00  0.687E+00    0.32       1.0  T
  18     -7.2497364  0.941369E+00  0.951E+00    0.41       1.0  T
  19     -7.4368382 -0.187102E+00  0.917E+00    0.40       1.0  T
  20     -8.0443196 -0.607481E+00  0.806E+00    0.33       1.0  T
  21     -6.9199758  0.112434E+01  0.106E+01    0.36       1.0  T
  22     -7.0083762 -0.884004E-01  0.104E+01    0.36       1.0  T
  23     -8.6304203 -0.162204E+01  0.529E+00    0.11       1.0  T
  24     -8.6291845  0.123576E-02  0.601E+00    0.15       1.0  T
  25     -8.6500312 -0.208466E-01  0.576E+00    0.11       1.0  T
  26     -8.6063702  0.436610E-01  0.538E+00    0.07       1.0  T
  27     -8.5594614  0.469087E-01  0.513E+00    0.06       1.0  T
  28     -8.2421978  0.317264E+00  0.482E+00    0.10       1.0  T
  29     -8.4323913 -0.190194E+00  0.493E+00    0.07       1.0  T
  30     -8.5819652 -0.149574E+00  0.467E+00    0.05       1.0  T
  31     -8.5080805  0.738847E-01  0.424E+00    0.05       1.0  T
  32     -8.5539806 -0.459001E-01  0.410E+00    0.05       1.0  T
  33     -8.6365915 -0.826109E-01  0.427E+00    0.06       1.0  T
  34     -8.6556839 -0.190924E-01  0.432E+00    0.06       1.0  T
  35     -8.6573234 -0.163954E-02  0.432E+00    0.07       1.0  T
  36     -8.6573023  0.210682E-04  0.435E+00    0.06       1.0  T
  37     -8.6547926  0.250969E-02  0.438E+00    0.06       1.0  T
  38     -8.6530896  0.170308E-02  0.444E+00    0.06       1.0  T
  39     -8.6564369 -0.334737E-02  0.452E+00    0.06       1.0  T
  40     -8.6575283 -0.109135E-02  0.449E+00    0.06       1.0  T
  41     -8.6580038 -0.475560E-03  0.451E+00    0.06       1.0  T
  42     -8.6606802 -0.267640E-02  0.437E+00    0.06       1.0  T
  43     -8.6636705 -0.299026E-02  0.387E+00    0.07       1.0  T
  44     -8.6624347  0.123584E-02  0.294E+00    0.09       1.0  T
  45     -8.6592370  0.319761E-02  0.253E+00    0.10       1.0  T
  46     -8.6678685 -0.863147E-02  0.120E+00    0.07       1.0  T
  47     -8.6626951  0.517339E-02  0.758E-01    0.06       1.0  T
  48     -8.6683986 -0.570347E-02  0.613E-01    0.07       1.0  T
  49     -8.6696395 -0.124090E-02  0.555E-01    0.07       1.0  T
  50     -8.6698567 -0.217182E-03  0.230E-01    0.06       1.0  T
  51     -8.6700203 -0.163588E-03  0.198E-01    0.07       1.0  T
  52     -8.6692479  0.772324E-03  0.269E-01    0.06       1.0  T
  53     -8.6700978 -0.849863E-03  0.143E-01    0.06       1.0  T
  54     -8.6695653  0.532474E-03  0.164E-01    0.06       1.0  T
  55     -8.6701389 -0.573538E-03  0.927E-02    0.06       1.0  T
  56     -8.6700736  0.652470E-04  0.899E-02    0.06       1.0  T
  57     -8.6702083 -0.134710E-03  0.808E-02    0.06       1.0  T
  58     -8.6701397  0.686284E-04  0.687E-02    0.06       1.0  T
  59     -8.6701755 -0.357946E-04  0.603E-02    0.06       1.0  T
  60     -8.6702054 -0.298964E-04  0.513E-02    0.06       1.0  T
  61     -8.6702327 -0.273220E-04  0.465E-02    0.06       1.0  T
  62     -8.6702485 -0.158125E-04  0.422E-02    0.06       1.0  T
  63     -8.6702664 -0.178705E-04  0.356E-02    0.06       1.0  T
  64     -8.6702707 -0.433661E-05  0.306E-02    0.06       1.0  T
  65     -8.6702700  0.693477E-06  0.268E-02    0.06       1.1  T
  66     -8.6702709 -0.829040E-06  0.207E-02    0.06       1.5  T
  67     -8.6702720 -0.113719E-05  0.124E-02    0.06       2.4  T
  68     -8.6702720 -0.290605E-07  0.622E-03    0.06       4.8  T
  69     -8.6702721 -0.957111E-08  0.272E-03    0.06      11.1  T
  70     -8.6702721 -0.685088E-07  0.146E-03    0.06      20.6  T
  71     -8.6702721  0.838834E-08  0.139E-03    0.06      21.7  T
  72     -8.6702721 -0.221339E-07  0.121E-03    0.06      24.8  T
  73     -8.6702721  0.163708E-07  0.126E-03    0.06      24.0  T
  74     -8.6702721 -0.173624E-07  0.416E-04    0.06      72.6  T
  75     -8.6702721  0.725006E-09  0.358E-04    0.06      84.3  T

   *** convergence criteria satisfied after 75 iterations ***

         #    Occupation            Energy/Eh            Energy/eV
      -------------------------------------------------------------
         1        2.0000           -0.5520398             -15.0218
       ...           ...                  ...                  ...
         5        2.0000           -0.3536456              -9.6232
         6        2.0000           -0.3167007              -8.6179
         7        2.0000           -0.3048942              -8.2966
         8        2.0000           -0.2820920              -7.6761
         9        2.0000           -0.2670304              -7.2663
        10        1.9999           -0.2575365              -7.0079
        11        0.7745           -0.2399927              -6.5305 (HOMO)
        12        0.2254           -0.2376481              -6.4667 (LUMO)
        13        0.0002           -0.2304777              -6.2716
        14                         -0.2081543              -5.6642
        15                         -0.1942168              -5.2849
        16                         -0.1812432              -4.9319
       ...                                ...                  ...
        26                          0.7946141              21.6226
      -------------------------------------------------------------
                  HL-Gap            0.0023446 Eh            0.0638 eV
             Fermi-level           -0.2438120 Eh           -6.6345 eV

 SCC (total)                   0 d,  0 h,  0 min,  0.016 sec
 SCC setup                      ...        0 min,  0.000 sec (  0.418%)
 Dispersion                     ...        0 min,  0.000 sec (  0.823%)
 classical contributions        ...        0 min,  0.000 sec (  0.704%)
 integral evaluation            ...        0 min,  0.000 sec (  0.867%)
 iterations                     ...        0 min,  0.015 sec ( 93.844%)
 molecular gradient             ...        0 min,  0.000 sec (  2.953%)
 printout                       ...        0 min,  0.000 sec (  0.304%)

         :::::::::::::::::::::::::::::::::::::::::::::::::::::
         ::                     SUMMARY                     ::
         :::::::::::::::::::::::::::::::::::::::::::::::::::::
         :: total energy              -8.586082593712 Eh    ::
         :: gradient norm              0.298248057518 Eh/a0 ::
         :: HOMO-LUMO gap              0.063800792769 eV    ::
         ::.................................................::
         :: SCC energy                -8.670272134564 Eh    ::
         :: -> isotropic ES           -0.015422956847 Eh    ::
         :: -> anisotropic ES          0.006862078295 Eh    ::
         :: -> anisotropic XC         -0.013663573149 Eh    ::
         :: -> dispersion             -0.010269096915 Eh    ::
         :: repulsion energy           0.084205702849 Eh    ::
         :: add. restraining           0.000000000000 Eh    ::
         :: total charge              -0.000000000015 e     ::
         :::::::::::::::::::::::::::::::::::::::::::::::::::::

      ----------------------------------------------------------- 
     |                   =====================                   |
     |                        A N C O P T                        |
     |                   =====================                   |
     |               Approximate Normal Coordinate               |
     |                Rational Function Optimizer                |
      ----------------------------------------------------------- 

          ...................................................
          :                      SETUP                      :
          :.................................................:
          :   optimization level            normal          :
          :   max. optcycles                   200          :
          :   ANC micro-cycles                  20          :
          :   degrees of freedom                27          :
          :.................................................:
          :   RF solver                   davidson          :
          :   write xtbopt.log                true          :
          :   linear?                        false          :
          :   energy convergence         0.5000000E-05 Eh   :
          :   grad. convergence          0.1000000E-02 Eh/α :
          :   maximium RF displ.         1.0000000          :
          :   Hlow (freq-cutoff)         0.1000000E-01      :
          :   Hmax (freq-cutoff)         5.0000000          :
          :   S6 in model hess.         20.0000000          :
          ...................................................

generating ANC from model Hessian ...
Using Lindh-Hessian (1995)
 Shifting diagonal of input Hessian by    1.4436234555928212E-002
 Lowest  eigenvalues of input Hessian
    0.010000    0.011572    0.014096    0.014130    0.014388    0.000000
    0.000000    0.000000    0.000000    0.000000    0.000000    0.014788
    0.015076    0.015941    0.016539    0.017230    0.018917    0.020332
 Highest eigenvalues
    0.172626    0.205105    0.273632    0.341125    0.395921    0.426990


........................................................................
.............................. CYCLE    1 ..............................
........................................................................
   1     -8.6702721 -0.867027E+01  0.238E-04    0.06       0.0  T
   2     -8.6702719  0.235633E-06  0.309E-03    0.06       9.8  T
   3     -8.6702721 -0.231376E-06  0.520E-04    0.06      58.0  T
   4     -8.6702721 -0.310909E-08  0.419E-04    0.06      72.0  T
     SCC iter.                  ...        0 min,  0.001 sec
     gradient                   ...        0 min,  0.000 sec
 * total energy  :    -8.5860826 Eh     change       -0.4491216E-09 Eh
   gradient norm :     0.2982281 Eh/α   predicted     0.0000000E+00 (-100.00%)
   displ. norm   :     0.7619782 α      lambda       -0.2216325E+00
   maximum displ.:     0.4283574 α      in ANC's #22, #21, #20, ...

........................................................................
.............................. CYCLE    2 ..............................
........................................................................
   1     -8.8021446 -0.880214E+01  0.273E+00    0.23       0.0  T
   2     -7.9054482  0.896696E+00  0.708E+00    0.18       1.0  T
   3     -8.6340111 -0.728563E+00  0.333E+00    0.50       1.0  T
   4     -8.3685250  0.265486E+00  0.405E+00    0.27       1.0  T
   5     -8.8006329 -0.432108E+00  0.173E+00    0.31       1.0  T
   6     -8.7538200  0.468129E-01  0.226E+00    0.12       1.0  T
   7     -8.7796583 -0.258383E-01  0.187E+00    0.29       1.0  T
   8     -8.8180713 -0.384130E-01  0.128E+00    0.31       1.0  T
   9     -8.7787792  0.392921E-01  0.187E+00    0.23       1.0  T
  10     -8.8142473 -0.354681E-01  0.120E+00    0.26       1.0  T
  11     -8.8443920 -0.301447E-01  0.393E-01    0.19       1.0  T
  12     -8.8390307  0.536123E-02  0.719E-01    0.15       1.0  T
  13     -8.8383249  0.705800E-03  0.749E-01    0.15       1.0  T
  14     -8.8454150 -0.709005E-02  0.243E-01    0.15       1.0  T
  15     -8.8458627 -0.447725E-03  0.183E-01    0.15       1.0  T
  16     -8.8460131 -0.150396E-03  0.974E-02    0.15       1.0  T
  17     -8.8461347 -0.121570E-03  0.366E-02    0.15       1.0  T
  18     -8.8461343  0.423117E-06  0.342E-02    0.15       1.0  T
  19     -8.8461483 -0.140305E-04  0.178E-02    0.15       1.7  T
  20     -8.8461508 -0.251853E-05  0.584E-03    0.15       5.2  T
  21     -8.8461509 -0.792141E-07  0.356E-03    0.15       8.5  T
  22     -8.8461509  0.250123E-07  0.320E-03    0.15       9.4  T
  23     -8.8461509 -0.588804E-07  0.227E-03    0.15      13.3  T
  24     -8.8461510 -0.437701E-07  0.999E-04    0.15      30.2  T
  25     -8.8461510 -0.833354E-08  0.415E-04    0.15      72.7  T
     SCC iter.                  ...        0 min,  0.004 sec
     gradient                   ...        0 min,  0.001 sec
 * total energy  :    -8.7845976 Eh     change       -0.1985150E+00 Eh
   gradient norm :     0.2587849 Eh/α   predicted    -0.1751573E+00 ( -11.77%)
   displ. norm   :     0.9311448 α      lambda       -0.2387144E+00
   maximum displ.:     0.6064920 α      in ANC's #22, #23, #27, ...

........................................................................
.............................. CYCLE    3 ..............................
........................................................................
   1     -9.0897104 -0.908971E+01  0.271E+00    0.37       0.0  T
   2     -8.6052316  0.484479E+00  0.579E+00    0.26       1.0  T
   3     -8.7291261 -0.123895E+00  0.468E+00    0.85       1.0  T
   4     -9.0388034 -0.309677E+00  0.251E+00    0.32       1.0  T
   5     -9.0706933 -0.318899E-01  0.186E+00    0.30       1.0  T
   6     -9.0866217 -0.159284E-01  0.144E+00    0.47       1.0  T
   7     -9.0957075 -0.908578E-02  0.130E+00    0.43       1.0  T
   8     -9.1003830 -0.467548E-02  0.112E+00    0.42       1.0  T
   9     -9.1067761 -0.639313E-02  0.848E-01    0.40       1.0  T
  10     -9.1159593 -0.918318E-02  0.450E-01    0.34       1.0  T
  11     -9.1185906 -0.263126E-02  0.245E-01    0.28       1.0  T
  12     -9.1179376  0.652996E-03  0.279E-01    0.26       1.0  T
  13     -9.1189740 -0.103645E-02  0.605E-02    0.27       1.0  T
  14     -9.1190580 -0.839975E-04  0.359E-02    0.28       1.0  T
  15     -9.1190639 -0.591404E-05  0.168E-02    0.28       1.8  T
  16     -9.1190678 -0.386896E-05  0.514E-03    0.29       5.9  T
  17     -9.1190677  0.126969E-06  0.379E-03    0.28       8.0  T
  18     -9.1190678 -0.164676E-06  0.124E-03    0.28      24.3  T
  19     -9.1190678 -0.882303E-08  0.655E-04    0.28      46.1  T
  20     -9.1190678 -0.778090E-08  0.315E-04    0.28      95.8  T
     SCC iter.                  ...        0 min,  0.004 sec
     gradient                   ...        0 min,  0.000 sec
 * total energy  :    -8.8922141 Eh     change       -0.1076165E+00 Eh
   gradient norm :     0.3902377 Eh/α   predicted    -0.2228435E+00 ( 107.07%)
   displ. norm   :     0.5370750 α      lambda       -0.1720769E+00
   maximum displ.:     0.2718262 α      in ANC's #16, #19, #26, ...

........................................................................
.............................. CYCLE    4 ..............................
........................................................................
   1     -9.0351399 -0.903514E+01  0.294E+00    0.33       0.0  T
   2     -6.5747092  0.246043E+01  0.924E+00    0.65       1.0  T
   3     -8.3932940 -0.181858E+01  0.590E+00    0.19       1.0  T
   4     -8.7271748 -0.333881E+00  0.428E+00    0.28       1.0  T
   5     -8.7442957 -0.171209E-01  0.387E+00    0.12       1.0  T
   6     -8.8637617 -0.119466E+00  0.292E+00    0.17       1.0  T
   7     -8.9658172 -0.102055E+00  0.228E+00    0.28       1.0  T
   8     -8.9903889 -0.245718E-01  0.190E+00    0.18       1.0  T
   9     -9.0115788 -0.211898E-01  0.164E+00    0.20       1.0  T
  10     -9.0411842 -0.296054E-01  0.124E+00    0.22       1.0  T
  11     -9.0701104 -0.289263E-01  0.618E-01    0.26       1.0  T
  12     -9.0722914 -0.218094E-02  0.561E-01    0.27       1.0  T
  13     -9.0784011 -0.610969E-02  0.257E-01    0.30       1.0  T
  14     -9.0783140  0.870791E-04  0.234E-01    0.29       1.0  T
  15     -9.0783033  0.106390E-04  0.212E-01    0.30       1.0  T
  16     -9.0787680 -0.464684E-03  0.947E-02    0.30       1.0  T
  17     -9.0788007 -0.327096E-04  0.418E-02    0.30       1.0  T
  18     -9.0788054 -0.468305E-05  0.246E-02    0.30       1.2  T
  19     -9.0788077 -0.229427E-05  0.149E-02    0.30       2.0  T
  20     -9.0788095 -0.178385E-05  0.612E-03    0.30       4.9  T
  21     -9.0788098 -0.267853E-06  0.405E-03    0.30       7.4  T
  22     -9.0788098 -0.737551E-07  0.212E-03    0.30      14.3  T
  23     -9.0788099 -0.105108E-07  0.127E-03    0.30      23.7  T
  24     -9.0788099 -0.505804E-08  0.379E-04    0.30      79.5  T
  25     -9.0788099 -0.327177E-09  0.275E-04    0.30     109.8  T
     SCC iter.                  ...        0 min,  0.004 sec
     gradient                   ...        0 min,  0.000 sec
 * total energy  :    -8.9303465 Eh     change       -0.3813241E-01 Eh
   gradient norm :     0.1788457 Eh/α   predicted    -0.1108562E+00 ( 190.71%)
   displ. norm   :     0.6783321 α      lambda       -0.8197895E-01
   maximum displ.:     0.3645236 α      in ANC's #16, #22, #13, ...

........................................................................
.............................. CYCLE    5 ..............................
........................................................................
   1     -9.0556524 -0.905565E+01  0.279E+00    0.18       0.0  T
   2     -8.9799290  0.757235E-01  0.263E+00    0.17       1.0  T
   3     -8.8989085  0.810205E-01  0.346E+00    0.21       1.0  T
   4     -8.7904385  0.108470E+00  0.386E+00    0.11       1.0  T
   5     -9.0487425 -0.258304E+00  0.117E+00    0.23       1.0  T
   6     -9.0358751  0.128674E-01  0.139E+00    0.09       1.0  T
   7     -9.0618120 -0.259369E-01  0.626E-01    0.22       1.0  T
   8     -9.0433746  0.184374E-01  0.919E-01    0.17       1.0  T
   9     -9.0661230 -0.227484E-01  0.273E-01    0.20       1.0  T
  10     -9.0667146 -0.591613E-03  0.142E-01    0.21       1.0  T
  11     -9.0671919 -0.477350E-03  0.365E-02    0.21       1.0  T
  12     -9.0671998 -0.784790E-05  0.140E-02    0.21       2.2  T
  13     -9.0671988  0.104365E-05  0.121E-02    0.21       2.5  T
  14     -9.0672015 -0.276596E-05  0.455E-03    0.20       6.6  T
  15     -9.0672017 -0.133603E-06  0.216E-03    0.20      14.0  T
  16     -9.0672017 -0.874466E-08  0.793E-04    0.20      38.0  T
  17     -9.0672017 -0.124524E-08  0.364E-04    0.20      82.8  T
     SCC iter.                  ...        0 min,  0.003 sec
     gradient                   ...        0 min,  0.000 sec
 * total energy  :    -8.9265455 Eh     change        0.3801061E-02 Eh
   gradient norm :     0.2279742 Eh/α   predicted    -0.5985014E-01 (*******%)
   displ. norm   :     0.5001892 α      lambda       -0.8947087E-01
   maximum displ.:     0.4200817 α      in ANC's #16, #27, #11, ...

........................................................................
.............................. CYCLE    6 ..............................
........................................................................
   1     -9.0500845 -0.905008E+01  0.229E+00    0.23       0.0  T
   2     -8.5644492  0.485635E+00  0.521E+00    0.09       1.0  T
   3     -9.0242188 -0.459770E+00  0.162E+00    0.23       1.0  T
   4     -7.3088197  0.171540E+01  0.901E+00    0.29       1.0  T
   5     -8.9966745 -0.168785E+01  0.239E+00    0.27       1.0  T
   6     -8.9391869  0.574876E-01  0.269E+00    0.35       1.0  T
   7     -8.9726422 -0.334553E-01  0.236E+00    0.32       1.0  T
   8     -9.0200025 -0.473604E-01  0.160E+00    0.29       1.0  T
   9     -9.0717520 -0.517495E-01  0.326E-01    0.26       1.0  T
  10     -9.0731275 -0.137542E-02  0.348E-01    0.23       1.0  T
  11     -9.0736684 -0.540922E-03  0.202E-01    0.24       1.0  T
  12     -9.0738659 -0.197479E-03  0.762E-02    0.23       1.0  T
  13     -9.0739024 -0.365008E-04  0.451E-02    0.23       1.0  T
  14     -9.0739009  0.143942E-05  0.231E-02    0.23       1.3  T
  15     -9.0739038 -0.287393E-05  0.162E-02    0.23       1.9  T
  16     -9.0739028  0.969363E-06  0.155E-02    0.23       1.9  T
  17     -9.0739045 -0.169197E-05  0.110E-02    0.23       2.7  T
  18     -9.0739055 -0.986184E-06  0.763E-03    0.23       4.0  T
  19     -9.0739063 -0.838783E-06  0.151E-03    0.23      19.9  T
  20     -9.0739064 -0.124117E-07  0.108E-03    0.23      28.0  T
  21     -9.0739064 -0.102374E-07  0.185E-04    0.23     163.0  T
  22     -9.0739064 -0.129754E-09  0.886E-05    0.23     340.3  T
     SCC iter.                  ...        0 min,  0.004 sec
     gradient                   ...        0 min,  0.001 sec
 * total energy  :    -8.9588542 Eh     change       -0.3230869E-01 Eh
   gradient norm :     0.1325159 Eh/α   predicted    -0.5592775E-01 (  73.10%)
   displ. norm   :     0.6301177 α      lambda       -0.8073356E-01
   maximum displ.:     0.5286628 α      in ANC's #22, #27, #20, ...

........................................................................
.............................. CYCLE    7 ..............................
........................................................................
   1     -9.2165020 -0.921650E+01  0.262E+00    0.40       0.0  T
   2     -8.7359416  0.480560E+00  0.470E+00    0.42       1.0  T
   3     -8.8450815 -0.109140E+00  0.438E+00    0.27       1.0  T
   4     -9.0474474 -0.202366E+00  0.327E+00    0.35       1.0  T
   5     -9.1320966 -0.846492E-01  0.269E+00    0.44       1.0  T
   6     -9.2199567 -0.878602E-01  0.128E+00    0.41       1.0  T
   7     -9.2168285  0.312823E-02  0.131E+00    0.43       1.0  T
   8     -9.2180271 -0.119856E-02  0.122E+00    0.42       1.0  T
   9     -9.2260957 -0.806858E-02  0.862E-01    0.43       1.0  T
  10     -9.2294711 -0.337544E-02  0.594E-01    0.43       1.0  T
  11     -9.2295263 -0.551749E-04  0.589E-01    0.43       1.0  T
  12     -9.2318931 -0.236682E-02  0.354E-01    0.44       1.0  T
  13     -9.2330195 -0.112639E-02  0.146E-01    0.45       1.0  T
  14     -9.2332633 -0.243838E-03  0.579E-02    0.45       1.0  T
  15     -9.2333174 -0.540713E-04  0.136E-02    0.45       2.2  T
  16     -9.2333194 -0.198433E-05  0.542E-03    0.45       5.6  T
  17     -9.2333194 -0.509759E-07  0.129E-03    0.45      23.3  T
  18     -9.2333194  0.275949E-07  0.228E-03    0.45      13.2  T
  19     -9.2333194 -0.473276E-07  0.380E-04    0.45      79.3  T
  20     -9.2333194 -0.570726E-09  0.236E-04    0.45     127.5  T
     SCC iter.                  ...        0 min,  0.004 sec
     gradient                   ...        0 min,  0.000 sec
 * total energy  :    -8.9630109 Eh     change       -0.4156761E-02 Eh
   gradient norm :     0.2803861 Eh/α   predicted    -0.5639432E-01 (1256.69%)
   displ. norm   :     0.4674990 α      lambda       -0.9569933E-01
   maximum displ.:     0.2318248 α      in ANC's #13, #15, #3, ...

........................................................................
.............................. CYCLE    8 ..............................
........................................................................
   1     -9.1816853 -0.918169E+01  0.172E+00    0.32       0.0  T
   2     -9.1445269  0.371584E-01  0.178E+00    0.31       1.0  T
   3     -8.9205493  0.223978E+00  0.330E+00    0.31       1.0  T
   4     -9.1107830 -0.190234E+00  0.173E+00    0.30       1.0  T
   5     -9.1494835 -0.387005E-01  0.111E+00    0.33       1.0  T
   6     -9.1771219 -0.276384E-01  0.541E-01    0.31       1.0  T
   7     -9.1811358 -0.401391E-02  0.353E-01    0.32       1.0  T
   8     -9.1797088  0.142702E-02  0.389E-01    0.31       1.0  T
   9     -9.1806442 -0.935376E-03  0.342E-01    0.32       1.0  T
  10     -9.1830334 -0.238927E-02  0.932E-02    0.32       1.0  T
  11     -9.1830244  0.902798E-05  0.845E-02    0.32       1.0  T
  12     -9.1831020 -0.776167E-04  0.224E-02    0.33       1.3  T
  13     -9.1831078 -0.575802E-05  0.106E-02    0.33       2.9  T
  14     -9.1831096 -0.180294E-05  0.295E-03    0.33      10.2  T
  15     -9.1831096  0.201844E-07  0.158E-03    0.33      19.1  T
  16     -9.1831096 -0.142243E-07  0.788E-04    0.33      38.3  T
  17     -9.1831096 -0.824146E-08  0.336E-04    0.33      89.7  T
     SCC iter.                  ...        0 min,  0.003 sec
     gradient                   ...        0 min,  0.000 sec
 * total energy  :    -9.0007567 Eh     change       -0.3774574E-01 Eh
   gradient norm :     0.1206114 Eh/α   predicted    -0.5830745E-01 (  54.47%)
   displ. norm   :     0.6771584 α      lambda       -0.6539862E-01
   maximum displ.:     0.3557293 α      in ANC's #13, #20, #6, ...

........................................................................
.............................. CYCLE    9 ..............................
........................................................................
   1     -9.1067611 -0.910676E+01  0.289E+00    0.38       0.0  T
   2     -8.4952626  0.611498E+00  0.589E+00    0.51       1.0  T
   3     -9.0421565 -0.546894E+00  0.205E+00    0.51       1.0  T
   4     -8.5629674  0.479189E+00  0.492E+00    0.21       1.0  T
   5     -8.9474149 -0.384448E+00  0.248E+00    0.18       1.0  T
   6     -9.0910085 -0.143594E+00  0.165E+00    0.20       1.0  T
   7     -9.1145529 -0.235444E-01  0.114E+00    0.27       1.0  T
   8     -9.1317627 -0.172098E-01  0.773E-01    0.30       1.0  T
   9     -9.1195568  0.122058E-01  0.873E-01    0.28       1.0  T
  10     -9.1363804 -0.168235E-01  0.185E-01    0.31       1.0  T
  11     -9.1362593  0.121115E-03  0.138E-01    0.30       1.0  T
  12     -9.1367742 -0.514981E-03  0.501E-02    0.30       1.0  T
  13     -9.1367850 -0.107957E-04  0.410E-02    0.30       1.0  T
  14     -9.1368327 -0.476168E-04  0.116E-02    0.31       2.6  T
  15     -9.1368321  0.565821E-06  0.102E-02    0.31       3.0  T
  16     -9.1368334 -0.127690E-05  0.254E-03    0.31      11.9  T
  17     -9.1368335 -0.108337E-06  0.998E-04    0.31      30.2  T
  18     -9.1368335 -0.235443E-07  0.373E-04    0.31      80.9  T
     SCC iter.                  ...        0 min,  0.003 sec
     gradient                   ...        0 min,  0.000 sec
 * total energy  :    -8.9932850 Eh     change        0.7471613E-02 Eh
   gradient norm :     0.1582256 Eh/α   predicted    -0.4769337E-01 (-738.33%)
   displ. norm   :     0.5620348 α      lambda       -0.4963545E-01
   maximum displ.:     0.2346717 α      in ANC's #22, #3, #15, ...

........................................................................
.............................. CYCLE   10 ..............................
........................................................................
   1     -9.1733285 -0.917333E+01  0.235E+00    0.64       0.0  T
   2     -8.6036034  0.569725E+00  0.482E+00    0.37       1.0  T
   3     -9.0720047 -0.468401E+00  0.281E+00    0.90       1.0  T
   4     -9.1437183 -0.717136E-01  0.190E+00    0.75       1.0  T
   5     -8.9803361  0.163382E+00  0.280E+00    0.60       1.0  T
   6     -9.1660153 -0.185679E+00  0.122E+00    0.55       1.0  T
   7     -9.1805107 -0.144955E-01  0.778E-01    0.60       1.0  T
   8     -9.1897438 -0.923304E-02  0.651E-01    0.55       1.0  T
   9     -9.1914102 -0.166644E-02  0.532E-01    0.54       1.0  T
  10     -9.1939518 -0.254157E-02  0.170E-01    0.49       1.0  T
  11     -9.1940617 -0.109944E-03  0.169E-01    0.48       1.0  T
  12     -9.1941541 -0.923602E-04  0.899E-02    0.48       1.0  T
  13     -9.1943812 -0.227126E-03  0.354E-02    0.48       1.0  T
  14     -9.1943790  0.219246E-05  0.411E-02    0.48       1.0  T
  15     -9.1943843 -0.525362E-05  0.512E-03    0.48       5.9  T
  16     -9.1943842  0.451268E-07  0.301E-03    0.48      10.0  T
  17     -9.1943844 -0.157880E-06  0.141E-03    0.48      21.4  T
  18     -9.1943844 -0.203656E-07  0.766E-04    0.48      39.4  T
  19     -9.1943844 -0.562775E-08  0.167E-04    0.48     180.8  T
     SCC iter.                  ...        0 min,  0.003 sec
     gradient                   ...        0 min,  0.001 sec
 * total energy  :    -9.0212523 Eh     change       -0.2796730E-01 Eh
   gradient norm :     0.0857763 Eh/α   predicted    -0.3265723E-01 (  16.77%)
   displ. norm   :     0.6422862 α      lambda       -0.3507213E-01
   maximum displ.:     0.2966144 α      in ANC's #1, #22, #15, ...

........................................................................
.............................. CYCLE   11 ..............................
........................................................................
   1     -9.2256076 -0.922561E+01  0.198E+00    0.29       0.0  T
   2     -8.7983156  0.427292E+00  0.450E+00    0.54       1.0  T
   3     -9.1826094 -0.384294E+00  0.229E+00    0.31       1.0  T
   4     -9.0727834  0.109826E+00  0.237E+00    0.37       1.0  T
   5     -9.1409676 -0.681841E-01  0.167E+00    0.20       1.0  T
   6     -9.1740852 -0.331176E-01  0.190E+00    0.23       1.0  T
   7     -9.2243902 -0.503050E-01  0.782E-01    0.25       1.0  T
   8     -9.2163152  0.807506E-02  0.962E-01    0.26       1.0  T
   9     -9.2290196 -0.127044E-01  0.597E-01    0.25       1.0  T
  10     -9.2355053 -0.648567E-02  0.260E-01    0.23       1.0  T
  11     -9.2355691 -0.638799E-04  0.250E-01    0.23       1.0  T
  12     -9.2356026 -0.334340E-04  0.147E-01    0.24       1.0  T
  13     -9.2341575  0.144503E-02  0.309E-01    0.24       1.0  T
  14     -9.2350749 -0.917338E-03  0.245E-01    0.24       1.0  T
  15     -9.2356722 -0.597367E-03  0.322E-02    0.24       1.0  T
  16     -9.2356792 -0.696549E-05  0.231E-02    0.24       1.3  T
  17     -9.2356776  0.161048E-05  0.234E-02    0.24       1.3  T
  18     -9.2356836 -0.598115E-05  0.132E-03    0.24      22.9  T
  19     -9.2356836  0.425633E-10  0.471E-04    0.24      64.0  T
  20     -9.2356836 -0.509318E-08  0.314E-04    0.24      96.1  T
     SCC iter.                  ...        0 min,  0.004 sec
     gradient                   ...        0 min,  0.000 sec
 * total energy  :    -9.0292590 Eh     change       -0.8006674E-02 Eh
   gradient norm :     0.1522391 Eh/α   predicted    -0.2477025E-01 ( 209.37%)
   displ. norm   :     0.3514135 α      lambda       -0.3379078E-01
   maximum displ.:     0.1635495 α      in ANC's #15, #13, #6, ...

........................................................................
.............................. CYCLE   12 ..............................
........................................................................
   1     -9.2213436 -0.922134E+01  0.182E+00    0.34       0.0  T
   2     -9.0787218  0.142622E+00  0.187E+00    0.49       1.0  T
   3     -8.8521133  0.226609E+00  0.350E+00    0.15       1.0  T
   4     -9.0313387 -0.179225E+00  0.276E+00    0.53       1.0  T
   5     -9.1534708 -0.122132E+00  0.185E+00    0.26       1.0  T
   6     -9.1995197 -0.460489E-01  0.106E+00    0.25       1.0  T
   7     -9.2101355 -0.106158E-01  0.993E-01    0.35       1.0  T
   8     -9.2172622 -0.712667E-02  0.797E-01    0.36       1.0  T
   9     -9.2173169 -0.547748E-04  0.667E-01    0.35       1.0  T
  10     -9.2267535 -0.943660E-02  0.175E-01    0.38       1.0  T
  11     -9.2269822 -0.228719E-03  0.130E-01    0.38       1.0  T
  12     -9.2272718 -0.289529E-03  0.109E-02    0.39       2.8  T
  13     -9.2272703  0.146853E-05  0.134E-02    0.39       2.2  T
  14     -9.2272715 -0.114319E-05  0.872E-03    0.39       3.5  T
  15     -9.2272723 -0.846518E-06  0.263E-03    0.39      11.5  T
  16     -9.2272723 -0.403832E-07  0.950E-04    0.39      31.7  T
  17     -9.2272723 -0.819064E-08  0.641E-04    0.39      47.0  T
     SCC iter.                  ...        0 min,  0.003 sec
     gradient                   ...        0 min,  0.001 sec
 * total energy  :    -9.0441466 Eh     change       -0.1488757E-01 Eh
   gradient norm :     0.0375856 Eh/α   predicted    -0.1898182E-01 (  27.50%)
   displ. norm   :     0.4952867 α      lambda       -0.1184580E-01
   maximum displ.:     0.2654663 α      in ANC's #2, #22, #9, ...

........................................................................
.............................. CYCLE   13 ..............................
........................................................................
   1     -9.2208962 -0.922090E+01  0.167E+00    0.29       0.0  T
   2     -9.0592157  0.161680E+00  0.360E+00    0.48       1.0  T
   3     -9.1885415 -0.129326E+00  0.146E+00    0.19       1.0  T
   4     -8.8120618  0.376480E+00  0.403E+00    0.81       1.0  T
   5     -9.1276177 -0.315556E+00  0.254E+00    0.57       1.0  T
   6     -8.9368333  0.190784E+00  0.323E+00    0.45       1.0  T
   7     -9.2162012 -0.279368E+00  0.715E-01    0.34       1.0  T
   8     -9.2245921 -0.839091E-02  0.379E-01    0.30       1.0  T
   9     -9.2260155 -0.142337E-02  0.288E-01    0.29       1.0  T
  10     -9.2267410 -0.725592E-03  0.177E-01    0.28       1.0  T
  11     -9.2268654 -0.124332E-03  0.930E-02    0.27       1.0  T
  12     -9.2269214 -0.560514E-04  0.522E-02    0.27       1.0  T
  13     -9.2269210  0.404199E-06  0.520E-02    0.27       1.0  T
  14     -9.2269471 -0.260719E-04  0.265E-02    0.26       1.1  T
  15     -9.2269549 -0.776897E-05  0.113E-02    0.27       2.7  T
  16     -9.2269558 -0.904507E-06  0.608E-03    0.27       5.0  T
  17     -9.2269561 -0.376446E-06  0.275E-03    0.27      11.0  T
  18     -9.2269562 -0.538110E-07  0.114E-03    0.27      26.3  T
  19     -9.2269562 -0.118253E-07  0.163E-04    0.27     185.4  T
  20     -9.2269562 -0.765432E-10  0.766E-05    0.27     393.8  T
     SCC iter.                  ...        0 min,  0.003 sec
     gradient                   ...        0 min,  0.000 sec
 * total energy  :    -9.0524007 Eh     change       -0.8254106E-02 Eh
   gradient norm :     0.0522323 Eh/α   predicted    -0.7375836E-02 ( -10.64%)
   displ. norm   :     0.6860582 α      lambda       -0.2025770E-01
   maximum displ.:     0.3090932 α      in ANC's #22, #26, #2, ...

........................................................................
.............................. CYCLE   14 ..............................
........................................................................
   1     -9.2189640 -0.921896E+01  0.285E+00    0.39       0.0  T
   2     -7.8103540  0.140861E+01  0.731E+00    0.75       1.0  T
   3     -9.0801532 -0.126980E+01  0.236E+00    0.38       1.0  T
   4     -8.3708538  0.709299E+00  0.490E+00    0.50       1.0  T
   5     -9.1955732 -0.824719E+00  0.168E+00    0.57       1.0  T
   6     -9.2152212 -0.196479E-01  0.180E+00    0.37       1.0  T
   7     -9.2422478 -0.270267E-01  0.112E+00    0.54       1.0  T
   8     -9.2494018 -0.715394E-02  0.653E-01    0.41       1.0  T
   9     -9.2583148 -0.891305E-02  0.470E-01    0.47       1.0  T
  10     -9.2574005  0.914354E-03  0.559E-01    0.48       1.0  T
  11     -9.2588897 -0.148924E-02  0.292E-01    0.47       1.0  T
  12     -9.2591834 -0.293743E-03  0.195E-01    0.46       1.0  T
  13     -9.2592238 -0.403119E-04  0.189E-01    0.46       1.0  T
  14     -9.2590457  0.178063E-03  0.160E-01    0.47       1.0  T
  15     -9.2593048 -0.259158E-03  0.100E-01    0.46       1.0  T
  16     -9.2593391 -0.342992E-04  0.931E-02    0.46       1.0  T
  17     -9.2593919 -0.527784E-04  0.431E-02    0.46       1.0  T
  18     -9.2594029 -0.109921E-04  0.112E-02    0.46       2.7  T
  19     -9.2594035 -0.591172E-06  0.389E-03    0.46       7.7  T
  20     -9.2594036 -0.102480E-06  0.195E-03    0.46      15.5  T
  21     -9.2594036 -0.199497E-07  0.943E-04    0.46      32.0  T
  22     -9.2594036 -0.594501E-08  0.357E-04    0.46      84.5  T
     SCC iter.                  ...        0 min,  0.004 sec
     gradient                   ...        0 min,  0.001 sec
 * total energy  :    -9.0688957 Eh     change       -0.1649501E-01 Eh
   gradient norm :     0.0405658 Eh/α   predicted    -0.1489626E-01 (  -9.69%)
   displ. norm   :     0.7719551 α      lambda       -0.2047450E-01
   maximum displ.:     0.2989123 α      in ANC's #26, #22, #2, ...

........................................................................
.............................. CYCLE   15 ..............................
........................................................................
   1     -9.2158318 -0.921583E+01  0.350E+00    0.42       0.0  T
   2     -7.0896453  0.212619E+01  0.873E+00    0.53       1.0  T
   3     -8.7897296 -0.170008E+01  0.484E+00    0.29       1.0  T
   4     -9.2009686 -0.411239E+00  0.296E+00    0.46       1.0  T
   5     -9.1782901  0.226786E-01  0.226E+00    0.47       1.0  T
   6     -9.2753458 -0.970557E-01  0.102E+00    0.38       1.0  T
   7     -9.2573770  0.179689E-01  0.264E+00    0.43       1.0  T
   8     -9.2497145  0.766243E-02  0.284E+00    0.44       1.0  T
   9     -9.2419087  0.780586E-02  0.303E+00    0.43       1.0  T
  10     -9.2758458 -0.339371E-01  0.189E+00    0.45       1.0  T
  11     -9.2851979 -0.935211E-02  0.655E-01    0.47       1.0  T
  12     -9.2415683  0.436296E-01  0.239E+00    0.47       1.0  T
  13     -9.2655813 -0.240130E-01  0.171E+00    0.48       1.0  T
  14     -9.2693635 -0.378222E-02  0.157E+00    0.49       1.0  T
  15     -9.2847484 -0.153849E-01  0.497E-01    0.49       1.0  T
  16     -9.2869221 -0.217367E-02  0.213E-01    0.49       1.0  T
  17     -9.2864884  0.433640E-03  0.397E-01    0.49       1.0  T
  18     -9.2872566 -0.768194E-03  0.179E-01    0.49       1.0  T
  19     -9.2873349 -0.782520E-04  0.145E-01    0.49       1.0  T
  20     -9.2874718 -0.136919E-03  0.363E-02    0.49       1.0  T
  21     -9.2874635  0.830872E-05  0.498E-02    0.49       1.0  T
  22     -9.2874713 -0.783023E-05  0.363E-02    0.49       1.0  T
  23     -9.2874742 -0.291874E-05  0.293E-02    0.49       1.0  T
  24     -9.2874780 -0.378427E-05  0.179E-02    0.49       1.7  T
  25     -9.2874799 -0.190709E-05  0.995E-03    0.49       3.0  T
  26     -9.2874806 -0.710038E-06  0.854E-04    0.49      35.3  T
  27     -9.2874806 -0.117694E-08  0.494E-04    0.49      61.0  T
     SCC iter.                  ...        0 min,  0.005 sec
     gradient                   ...        0 min,  0.001 sec
 * total energy  :    -9.0631693 Eh     change        0.5726394E-02 Eh
   gradient norm :     0.1971142 Eh/α   predicted    -0.1633780E-01 (-385.31%)
   displ. norm   :     0.3132698 α      lambda       -0.4637311E-01
   maximum displ.:     0.1592173 α      in ANC's #19, #26, #22, ...

........................................................................
.............................. CYCLE   16 ..............................
........................................................................
   1     -9.2628799 -0.926288E+01  0.107E+00    0.45       0.0  T
   2     -9.1178875  0.144992E+00  0.291E+00    0.17       1.0  T
   3     -9.2635655 -0.145678E+00  0.824E-01    0.36       1.0  T
   4     -9.2386607  0.249048E-01  0.140E+00    0.53       1.0  T
   5     -9.1996170  0.390436E-01  0.204E+00    0.33       1.0  T
   6     -9.2289816 -0.293646E-01  0.167E+00    0.33       1.0  T
   7     -9.2494068 -0.204252E-01  0.112E+00    0.39       1.0  T
   8     -9.2520108 -0.260401E-02  0.123E+00    0.39       1.0  T
   9     -9.2622340 -0.102232E-01  0.597E-01    0.39       1.0  T
  10     -9.2643265 -0.209251E-02  0.426E-01    0.39       1.0  T
  11     -9.2639305  0.396041E-03  0.472E-01    0.39       1.0  T
  12     -9.2660022 -0.207177E-02  0.331E-02    0.39       1.0  T
  13     -9.2659689  0.333360E-04  0.485E-02    0.39       1.0  T
  14     -9.2659433  0.256264E-04  0.793E-02    0.39       1.0  T
  15     -9.2659903 -0.469816E-04  0.380E-02    0.39       1.0  T
  16     -9.2660012 -0.109516E-04  0.183E-02    0.39       1.6  T
  17     -9.2660037 -0.250218E-05  0.322E-03    0.39       9.4  T
  18     -9.2660038 -0.457242E-07  0.571E-04    0.39      52.8  T
  19     -9.2660038 -0.536426E-09  0.477E-04    0.39      63.3  T
     SCC iter.                  ...        0 min,  0.003 sec
     gradient                   ...        0 min,  0.000 sec
 * total energy  :    -9.0802878 Eh     change       -0.1711849E-01 Eh
   gradient norm :     0.0293220 Eh/α   predicted    -0.2546204E-01 (  48.74%)
   displ. norm   :     0.5121594 α      lambda       -0.8615980E-02
   maximum displ.:     0.2760926 α      in ANC's #6, #4, #13, ...

........................................................................
.............................. CYCLE   17 ..............................
........................................................................
   1     -9.2727495 -0.927275E+01  0.237E+00    0.39       0.0  T
   2     -8.0994770  0.117327E+01  0.688E+00    0.51       1.0  T
   3     -9.0901871 -0.990710E+00  0.278E+00    0.20       1.0  T
   4     -9.2894416 -0.199254E+00  0.152E+00    0.40       1.0  T
   5     -9.2973449 -0.790336E-02  0.129E+00    0.38       1.0  T
   6     -9.2981184 -0.773495E-03  0.122E+00    0.39       1.0  T
   7     -9.2845809  0.135375E-01  0.164E+00    0.33       1.0  T
   8     -9.2786244  0.595655E-02  0.129E+00    0.29       1.0  T
   9     -9.2968867 -0.182623E-01  0.713E-01    0.40       1.0  T
  10     -9.2994407 -0.255401E-02  0.672E-01    0.38       1.0  T
  11     -9.2986327  0.807952E-03  0.942E-01    0.39       1.0  T
  12     -9.2982027  0.430074E-03  0.958E-01    0.39       1.0  T
  13     -9.2992952 -0.109256E-02  0.864E-01    0.39       1.0  T
  14     -9.3026416 -0.334633E-02  0.580E-01    0.40       1.0  T
  15     -9.3044215 -0.177991E-02  0.270E-01    0.40       1.0  T
  16     -9.3047687 -0.347244E-03  0.187E-01    0.40       1.0  T
  17     -9.3043786  0.390122E-03  0.282E-01    0.40       1.0  T
  18     -9.3052254 -0.846769E-03  0.466E-02    0.40       1.0  T
  19     -9.3052202  0.518557E-05  0.597E-02    0.40       1.0  T
  20     -9.3052622 -0.419933E-04  0.890E-03    0.40       3.4  T
  21     -9.3052615  0.622450E-06  0.886E-03    0.40       3.4  T
  22     -9.3052622 -0.655860E-06  0.498E-03    0.40       6.1  T
  23     -9.3052624 -0.232421E-06  0.182E-03    0.40      16.6  T
  24     -9.3052625 -0.329611E-07  0.103E-03    0.40      29.3  T
  25     -9.3052625 -0.305093E-08  0.852E-04    0.40      35.4  T
  26     -9.3052625 -0.396755E-08  0.332E-04    0.40      90.9  T
     SCC iter.                  ...        0 min,  0.004 sec
     gradient                   ...        0 min,  0.001 sec
 * total energy  :    -9.0805876 Eh     change       -0.2998279E-03 Eh
   gradient norm :     0.0833810 Eh/α   predicted    -0.5438005E-02 (1713.71%)
   displ. norm   :     0.4432639 α      lambda       -0.1270883E-01
   maximum displ.:     0.1862067 α      in ANC's #2, #6, #3, ...

........................................................................
.............................. CYCLE   18 ..............................
........................................................................
   1     -9.2396404 -0.923964E+01  0.229E+00    0.35       0.0  T
   2     -8.1319447  0.110770E+01  0.671E+00    0.43       1.0  T
   3     -9.0872906 -0.955346E+00  0.261E+00    0.18       1.0  T
   4     -9.2607386 -0.173448E+00  0.142E+00    0.35       1.0  T
   5     -9.2496473  0.110912E-01  0.209E+00    0.37       1.0  T
   6     -9.2205885  0.290589E-01  0.272E+00    0.34       1.0  T
   7     -9.1701848  0.504037E-01  0.327E+00    0.31       1.0  T
   8     -9.2735911 -0.103406E+00  0.759E-01    0.38       1.0  T
   9     -9.2511279  0.224632E-01  0.138E+00    0.30       1.0  T
  10     -9.2703200 -0.191921E-01  0.929E-01    0.36       1.0  T
  11     -9.2710221 -0.702113E-03  0.765E-01    0.35       1.0  T
  12     -9.2627707  0.825139E-02  0.117E+00    0.35       1.0  T
  13     -9.2756907 -0.129201E-01  0.420E-01    0.36       1.0  T
  14     -9.2769716 -0.128083E-02  0.302E-01    0.37       1.0  T
  15     -9.2774385 -0.466939E-03  0.191E-01    0.37       1.0  T
  16     -9.2776812 -0.242677E-03  0.107E-01    0.38       1.0  T
  17     -9.2777487 -0.675399E-04  0.457E-02    0.38       1.0  T
  18     -9.2777573 -0.858740E-05  0.340E-02    0.38       1.0  T
  19     -9.2777711 -0.137550E-04  0.146E-02    0.38       2.1  T
  20     -9.2777716 -0.526239E-06  0.394E-03    0.38       7.7  T
  21     -9.2777712  0.380277E-06  0.645E-03    0.38       4.7  T
  22     -9.2777716 -0.390871E-06  0.184E-03    0.38      16.4  T
  23     -9.2777716  0.373394E-08  0.165E-03    0.38      18.2  T
  24     -9.2777716 -0.225625E-07  0.300E-04    0.38     100.4  T
  25     -9.2777716 -0.903000E-09  0.231E-05    0.38    1306.9  T
     SCC iter.                  ...        0 min,  0.004 sec
     gradient                   ...        0 min,  0.001 sec
 * total energy  :    -9.0877589 Eh     change       -0.7171323E-02 Eh
   gradient norm :     0.0328023 Eh/α   predicted    -0.7602952E-02 (   6.02%)
   displ. norm   :     0.5139075 α      lambda       -0.9423216E-02
   maximum displ.:     0.2509869 α      in ANC's #3, #1, #6, ...

........................................................................
.............................. CYCLE   19 ..............................
........................................................................
   1     -9.2779140 -0.927791E+01  0.160E+00    0.45       0.0  T
   2     -9.1180127  0.159901E+00  0.319E+00    0.31       1.0  T
   3     -9.1128899  0.512277E-02  0.299E+00    0.47       1.0  T
   4     -9.1934291 -0.805392E-01  0.282E+00    0.48       1.0  T
   5     -9.1825985  0.108307E-01  0.268E+00    0.36       1.0  T
   6     -9.2598048 -0.772063E-01  0.152E+00    0.49       1.0  T
   7     -9.2789150 -0.191101E-01  0.935E-01    0.46       1.0  T
   8     -9.2777109  0.120401E-02  0.124E+00    0.49       1.0  T
   9     -9.2766364  0.107450E-02  0.124E+00    0.49       1.0  T
  10     -9.2738404  0.279606E-02  0.135E+00    0.49       1.0  T
  11     -9.2856214 -0.117810E-01  0.679E-01    0.47       1.0  T
  12     -9.2792615  0.635992E-02  0.110E+00    0.46       1.0  T
  13     -9.2790264  0.235084E-03  0.111E+00    0.46       1.0  T
  14     -9.2849026 -0.587624E-02  0.697E-01    0.47       1.0  T
  15     -9.2883184 -0.341579E-02  0.259E-01    0.48       1.0  T
  16     -9.2887520 -0.433613E-03  0.935E-02    0.49       1.0  T
  17     -9.2888313 -0.792722E-04  0.133E-02    0.49       2.3  T
  18     -9.2888286  0.271135E-05  0.285E-02    0.49       1.1  T
  19     -9.2888312 -0.262467E-05  0.186E-02    0.49       1.6  T
  20     -9.2888337 -0.247970E-05  0.553E-03    0.49       5.5  T
  21     -9.2888339 -0.145272E-06  0.317E-03    0.49       9.5  T
  22     -9.2888339 -0.833006E-07  0.116E-03    0.49      26.1  T
  23     -9.2888339 -0.583747E-08  0.460E-04    0.49      65.5  T
  24     -9.2888339 -0.169039E-08  0.121E-04    0.49     249.8  T
     SCC iter.                  ...        0 min,  0.004 sec
     gradient                   ...        0 min,  0.000 sec
 * total energy  :    -9.0840446 Eh     change        0.3714350E-02 Eh
   gradient norm :     0.0725608 Eh/α   predicted    -0.5955938E-02 (-260.35%)
   displ. norm   :     0.3668755 α      lambda       -0.1489283E-01
   maximum displ.:     0.1415467 α      in ANC's #2, #14, #6, ...

........................................................................
.............................. CYCLE   20 ..............................
........................................................................
   1     -9.2643995 -0.926440E+01  0.186E+00    0.41       0.0  T
   2     -8.5698923  0.694507E+00  0.541E+00    0.78       1.0  T
   3     -9.1251737 -0.555281E+00  0.283E+00    0.30       1.0  T
   4     -9.2498069 -0.124633E+00  0.175E+00    0.42       1.0  T
   5     -9.2208552  0.289516E-01  0.250E+00    0.32       1.0  T
   6     -9.2532856 -0.324304E-01  0.228E+00    0.35       1.0  T
   7     -9.2433992  0.988635E-02  0.238E+00    0.35       1.0  T
   8     -9.2220198  0.213794E-01  0.283E+00    0.37       1.0  T
   9     -9.2553168 -0.332970E-01  0.193E+00    0.40       1.0  T
  10     -9.2772131 -0.218963E-01  0.670E-01    0.42       1.0  T
  11     -9.2807578 -0.354471E-02  0.546E-01    0.42       1.0  T
  12     -9.2641886  0.165693E-01  0.175E+00    0.42       1.0  T
  13     -9.2820507 -0.178621E-01  0.133E-01    0.42       1.0  T
  14     -9.2817160  0.334708E-03  0.297E-01    0.42       1.0  T
  15     -9.2813333  0.382730E-03  0.375E-01    0.42       1.0  T
  16     -9.2820357 -0.702448E-03  0.941E-02    0.42       1.0  T
  17     -9.2820584 -0.226670E-04  0.795E-02    0.42       1.0  T
  18     -9.2820843 -0.259394E-04  0.516E-02    0.42       1.0  T
  19     -9.2820896 -0.524519E-05  0.448E-02    0.42       1.0  T
  20     -9.2821010 -0.114251E-04  0.114E-02    0.42       2.7  T
  21     -9.2821016 -0.636641E-06  0.177E-03    0.42      17.1  T
  22     -9.2821016 -0.177187E-07  0.768E-04    0.42      39.2  T
  23     -9.2821016 -0.136407E-08  0.496E-04    0.42      60.7  T
     SCC iter.                  ...        0 min,  0.003 sec
     gradient                   ...        0 min,  0.000 sec
 * total energy  :    -9.0920042 Eh     change       -0.7959574E-02 Eh
   gradient norm :     0.0188848 Eh/α   predicted    -0.8448677E-02 (   6.14%)
   displ. norm   :     0.4246871 α      lambda       -0.3489321E-02
   maximum displ.:     0.2746876 α      in ANC's #4, #6, #12, ...
 * RMSD in coord.:     1.6731928 α      energy gain  -0.5059216E+00 Eh

generating ANC from model Hessian ...
Using Lindh-Hessian (1995)
 Shifting diagonal of input Hessian by    1.0360320702905546E-002
 Lowest  eigenvalues of input Hessian
    0.010000    0.010121    0.010162    0.010246    0.010330    0.000000
    0.000000    0.000000    0.000000    0.000000    0.000000    0.010366
    0.010461    0.010816    0.010989    0.011188    0.011482    0.011671
 Highest eigenvalues
    0.517590    0.575590    0.588609    0.826088    1.282700    1.762831


........................................................................
.............................. CYCLE   21 ..............................
........................................................................
   1     -9.2255877 -0.922559E+01  0.285E+00    0.35       0.0  T
   2     -7.7281059  0.149748E+01  0.672E+00    0.11       1.0  T
   3     -8.9164793 -0.118837E+01  0.421E+00    0.05       1.0  T
   4     -9.0276717 -0.111192E+00  0.330E+00    0.15       1.0  T
   5     -8.8281683  0.199503E+00  0.601E+00    0.10       1.0  T
   6     -9.1957173 -0.367549E+00  0.166E+00    0.17       1.0  T
   7     -9.2553889 -0.596716E-01  0.138E+00    0.34       1.0  T
   8     -9.0608154  0.194573E+00  0.417E+00    0.26       1.0  T
   9     -8.9913155  0.694999E-01  0.460E+00    0.28       1.0  T
  10     -9.0411247 -0.498091E-01  0.429E+00    0.27       1.0  T
  11     -9.0265648  0.145599E-01  0.438E+00    0.27       1.0  T
  12     -9.1600881 -0.133523E+00  0.344E+00    0.28       1.0  T
  13     -9.1798243 -0.197363E-01  0.321E+00    0.28       1.0  T
  14     -9.2023707 -0.225464E-01  0.278E+00    0.30       1.0  T
  15     -9.2754049 -0.730342E-01  0.839E-01    0.40       1.0  T
  16     -9.2531222  0.222827E-01  0.212E+00    0.40       1.0  T
  17     -9.2534963 -0.374084E-03  0.210E+00    0.40       1.0  T
  18     -9.2540138 -0.517505E-03  0.207E+00    0.40       1.0  T
  19     -9.2540516 -0.378469E-04  0.204E+00    0.40       1.0  T
  20     -9.2760576 -0.220060E-01  0.846E-01    0.39       1.0  T
  21     -9.2784192 -0.236156E-02  0.671E-01    0.39       1.0  T
  22     -9.2798832 -0.146403E-02  0.673E-01    0.38       1.0  T
  23     -9.2805431 -0.659926E-03  0.391E-01    0.39       1.0  T
  24     -9.2805626 -0.194158E-04  0.398E-01    0.38       1.0  T
  25     -9.2807742 -0.211669E-03  0.270E-01    0.38       1.0  T
  26     -9.2807900 -0.158103E-04  0.245E-01    0.38       1.0  T
  27     -9.2809891 -0.199017E-03  0.850E-02    0.37       1.0  T
  28     -9.2810110 -0.219912E-04  0.215E-02    0.37       1.4  T
  29     -9.2810130 -0.200119E-05  0.137E-02    0.37       2.2  T
  30     -9.2810119  0.116936E-05  0.199E-02    0.37       1.5  T
  31     -9.2810135 -0.164571E-05  0.340E-03    0.37       8.9  T
  32     -9.2810135  0.489868E-07  0.414E-03    0.37       7.3  T
  33     -9.2810135 -0.574840E-07  0.289E-03    0.37      10.4  T
  34     -9.2810135 -0.185991E-07  0.217E-03    0.37      13.9  T
  35     -9.2810136 -0.165785E-07  0.201E-04    0.37     150.1  T
  36     -9.2810136  0.822933E-10  0.186E-04    0.37     162.3  T
     SCC iter.                  ...        0 min,  0.005 sec
     gradient                   ...        0 min,  0.001 sec
 * total energy  :    -9.0909313 Eh     change        0.1072836E-02 Eh
   gradient norm :     0.0469346 Eh/α   predicted     0.0000000E+00 (-100.00%)
   displ. norm   :     0.2858739 α      lambda       -0.6024772E-02
   maximum displ.:     0.1531662 α      in ANC's #16, #13, #8, ...

........................................................................
.............................. CYCLE   22 ..............................
........................................................................
   1     -9.2647101 -0.926471E+01  0.171E+00    0.34       0.0  T
   2     -8.9209787  0.343731E+00  0.555E+00    0.00       1.0  T
   3     -9.2315581 -0.310579E+00  0.280E+00    0.53       1.0  T
   4     -9.2213170  0.102410E-01  0.229E+00    0.29       1.0  T
   5     -9.2773559 -0.560388E-01  0.118E+00    0.33       1.0  T
   6     -9.2534620  0.238939E-01  0.165E+00    0.38       1.0  T
   7     -9.2711872 -0.177252E-01  0.129E+00    0.37       1.0  T
   8     -9.2875759 -0.163887E-01  0.324E-01    0.36       1.0  T
   9     -9.2853223  0.225363E-02  0.569E-01    0.37       1.0  T
  10     -9.2860475 -0.725217E-03  0.457E-01    0.37       1.0  T
  11     -9.2871010 -0.105349E-02  0.395E-01    0.37       1.0  T
  12     -9.2882961 -0.119515E-02  0.122E-01    0.37       1.0  T
  13     -9.2883751 -0.790181E-04  0.264E-02    0.37       1.1  T
  14     -9.2880263  0.348786E-03  0.180E-01    0.37       1.0  T
  15     -9.2882299 -0.203557E-03  0.113E-01    0.37       1.0  T
  16     -9.2883112 -0.812986E-04  0.744E-02    0.37       1.0  T
  17     -9.2883209 -0.966687E-05  0.690E-02    0.37       1.0  T
  18     -9.2883625 -0.416100E-04  0.348E-02    0.37       1.0  T
  19     -9.2883708 -0.828546E-05  0.222E-02    0.37       1.4  T
  20     -9.2883758 -0.504718E-05  0.881E-03    0.37       3.4  T
  21     -9.2883768 -0.100969E-05  0.930E-04    0.37      32.4  T
  22     -9.2883768 -0.699614E-08  0.674E-04    0.37      44.7  T
  23     -9.2883768 -0.435983E-08  0.826E-05    0.37     365.1  T
     SCC iter.                  ...        0 min,  0.004 sec
     gradient                   ...        0 min,  0.000 sec
 * total energy  :    -9.0948858 Eh     change       -0.3954449E-02 Eh
   gradient norm :     0.0168302 Eh/α   predicted    -0.3258567E-02 ( -17.60%)
   displ. norm   :     0.3910012 α      lambda       -0.3501312E-02
   maximum displ.:     0.2552555 α      in ANC's #15, #13, #17, ...

........................................................................
.............................. CYCLE   23 ..............................
........................................................................
   1     -9.2668290 -0.926683E+01  0.183E+00    0.33       0.0  T
   2     -8.8926890  0.374140E+00  0.588E+00    0.03       1.0  T
   3     -9.2284343 -0.335745E+00  0.291E+00    0.50       1.0  T
   4     -9.2129305  0.155037E-01  0.243E+00    0.26       1.0  T
   5     -9.2206744 -0.774387E-02  0.244E+00    0.27       1.0  T
   6     -9.2188694  0.180503E-02  0.235E+00    0.35       1.0  T
   7     -9.2741801 -0.553107E-01  0.124E+00    0.35       1.0  T
   8     -9.2845214 -0.103413E-01  0.899E-01    0.34       1.0  T
   9     -9.2884127 -0.389133E-02  0.634E-01    0.36       1.0  T
  10     -9.2904579 -0.204518E-02  0.397E-01    0.37       1.0  T
  11     -9.2916707 -0.121276E-02  0.259E-01    0.37       1.0  T
  12     -9.2921044 -0.433758E-03  0.866E-02    0.36       1.0  T
  13     -9.2917639  0.340503E-03  0.190E-01    0.36       1.0  T
  14     -9.2918636 -0.996768E-04  0.165E-01    0.36       1.0  T
  15     -9.2921550 -0.291406E-03  0.574E-02    0.36       1.0  T
  16     -9.2921299  0.251411E-04  0.737E-02    0.36       1.0  T
  17     -9.2921118  0.180797E-04  0.865E-02    0.36       1.0  T
  18     -9.2921684 -0.566357E-04  0.565E-02    0.36       1.0  T
  19     -9.2922007 -0.322993E-04  0.236E-02    0.36       1.3  T
  20     -9.2922066 -0.583925E-05  0.902E-03    0.36       3.3  T
  21     -9.2922076 -0.100936E-05  0.791E-04    0.36      38.1  T
  22     -9.2922076  0.197978E-08  0.840E-04    0.36      35.9  T
  23     -9.2922076 -0.604974E-08  0.369E-04    0.36      81.8  T
     SCC iter.                  ...        0 min,  0.004 sec
     gradient                   ...        0 min,  0.000 sec
 * total energy  :    -9.0954732 Eh     change       -0.5874401E-03 Eh
   gradient norm :     0.0273772 Eh/α   predicted    -0.2018305E-02 ( 243.58%)
   displ. norm   :     0.2145953 α      lambda       -0.2295395E-02
   maximum displ.:     0.1598074 α      in ANC's #16, #13, #8, ...

........................................................................
.............................. CYCLE   24 ..............................
........................................................................
   1     -9.2863599 -0.928636E+01  0.982E-01    0.35       0.0  T
   2     -8.7577362  0.528624E+00  0.465E+00    0.50       1.0  T
   3     -9.2229397 -0.465203E+00  0.231E+00    0.34       1.0  T
   4     -9.2203702  0.256947E-02  0.237E+00    0.35       1.0  T
   5     -9.2257903 -0.542015E-02  0.170E+00    0.40       1.0  T
   6     -9.2758809 -0.500905E-01  0.183E+00    0.33       1.0  T
   7     -9.2730337  0.284720E-02  0.180E+00    0.34       1.0  T
   8     -9.2899912 -0.169575E-01  0.859E-01    0.35       1.0  T
   9     -9.2908473 -0.856181E-03  0.620E-01    0.37       1.0  T
  10     -9.2918914 -0.104404E-02  0.104E-01    0.36       1.0  T
  11     -9.2919731 -0.817163E-04  0.136E-01    0.36       1.0  T
  12     -9.2912214  0.751679E-03  0.374E-01    0.36       1.0  T
  13     -9.2920427 -0.821267E-03  0.833E-02    0.36       1.0  T
  14     -9.2920381  0.455731E-05  0.912E-02    0.36       1.0  T
  15     -9.2920595 -0.213535E-04  0.698E-02    0.36       1.0  T
  16     -9.2920897 -0.302505E-04  0.711E-03    0.36       4.2  T
  17     -9.2920898 -0.876076E-07  0.558E-03    0.36       5.4  T
  18     -9.2920900 -0.164310E-06  0.206E-04    0.36     146.3  T
  19     -9.2920900  0.216112E-10  0.264E-04    0.36     114.1  T
     SCC iter.                  ...        0 min,  0.003 sec
     gradient                   ...        0 min,  0.000 sec
 * total energy  :    -9.0969727 Eh     change       -0.1499434E-02 Eh
   gradient norm :     0.0089284 Eh/α   predicted    -0.1200552E-02 ( -19.93%)
   displ. norm   :     0.3517085 α      lambda       -0.1076427E-02
   maximum displ.:     0.1744658 α      in ANC's #13, #15, #16, ...

........................................................................
.............................. CYCLE   25 ..............................
........................................................................
   1     -9.2846391 -0.928464E+01  0.116E+00    0.34       0.0  T
   2     -8.8207351  0.463904E+00  0.438E+00    0.42       1.0  T
   3     -9.2014700 -0.380735E+00  0.250E+00    0.31       1.0  T
   4     -9.2068091 -0.533909E-02  0.235E+00    0.31       1.0  T
   5     -9.2056406  0.116858E-02  0.197E+00    0.35       1.0  T
   6     -9.2690429 -0.634023E-01  0.947E-01    0.31       1.0  T
   7     -9.2851281 -0.160852E-01  0.110E+00    0.35       1.0  T
   8     -9.2875385 -0.241041E-02  0.503E-01    0.34       1.0  T
   9     -9.2873505  0.188002E-03  0.471E-01    0.34       1.0  T
  10     -9.2862397  0.111082E-02  0.612E-01    0.34       1.0  T
  11     -9.2832830  0.295667E-02  0.851E-01    0.35       1.0  T
  12     -9.2838817 -0.598618E-03  0.812E-01    0.35       1.0  T
  13     -9.2885612 -0.467957E-02  0.765E-02    0.35       1.0  T
  14     -9.2883929  0.168360E-03  0.231E-01    0.35       1.0  T
  15     -9.2885709 -0.178045E-03  0.103E-01    0.35       1.0  T
  16     -9.2885977 -0.268210E-04  0.384E-02    0.35       1.0  T
  17     -9.2886061 -0.840312E-05  0.155E-02    0.35       1.9  T
  18     -9.2886083 -0.221677E-05  0.800E-03    0.35       3.8  T
  19     -9.2886085 -0.143712E-06  0.451E-03    0.35       6.7  T
  20     -9.2886086 -0.607501E-07  0.396E-04    0.35      76.1  T
  21     -9.2886086 -0.200359E-08  0.102E-04    0.35     295.9  T
     SCC iter.                  ...        0 min,  0.004 sec
     gradient                   ...        0 min,  0.001 sec
 * total energy  :    -9.0976804 Eh     change       -0.7077659E-03 Eh
   gradient norm :     0.0116641 Eh/α   predicted    -0.6047879E-03 ( -14.55%)
   displ. norm   :     0.3283207 α      lambda       -0.7159195E-03
   maximum displ.:     0.1719841 α      in ANC's #13, #8, #5, ...

........................................................................
.............................. CYCLE   26 ..............................
........................................................................
   1     -9.2905208 -0.929052E+01  0.704E-01    0.34       0.0  T
   2     -9.2361777  0.543431E-01  0.213E+00    0.33       1.0  T
   3     -9.2831690 -0.469912E-01  0.958E-01    0.35       1.0  T
   4     -9.2306850  0.524840E-01  0.197E+00    0.23       1.0  T
   5     -9.2905553 -0.598703E-01  0.120E-01    0.35       1.0  T
   6     -9.2900146  0.540694E-03  0.259E-01    0.35       1.0  T
   7     -9.2900720 -0.573806E-04  0.250E-01    0.35       1.0  T
   8     -9.2903979 -0.325939E-03  0.179E-01    0.35       1.0  T
   9     -9.2905637 -0.165770E-03  0.125E-01    0.35       1.0  T
  10     -9.2907188 -0.155125E-03  0.382E-02    0.35       1.0  T
  11     -9.2906131  0.105649E-03  0.106E-01    0.35       1.0  T
  12     -9.2907269 -0.113718E-03  0.841E-03    0.35       3.6  T
  13     -9.2907269 -0.754283E-08  0.100E-02    0.35       3.0  T
  14     -9.2907276 -0.690959E-06  0.257E-03    0.35      11.7  T
  15     -9.2907276 -0.621384E-07  0.719E-04    0.35      41.9  T
  16     -9.2907276 -0.495220E-08  0.937E-05    0.35     321.8  T
     SCC iter.                  ...        0 min,  0.002 sec
     gradient                   ...        0 min,  0.001 sec
 * total energy  :    -9.0982301 Eh     change       -0.5496846E-03 Eh
   gradient norm :     0.0091259 Eh/α   predicted    -0.3965463E-03 ( -27.86%)
   displ. norm   :     0.4234302 α      lambda       -0.8717456E-03
   maximum displ.:     0.2038108 α      in ANC's #13, #8, #5, ...

........................................................................
.............................. CYCLE   27 ..............................
........................................................................
   1     -9.2921262 -0.929213E+01  0.849E-01    0.33       0.0  T
   2     -9.2738460  0.182802E-01  0.141E+00    0.34       1.0  T
   3     -9.1211376  0.152708E+00  0.311E+00    0.28       1.0  T
   4     -9.1765394 -0.554019E-01  0.254E+00    0.23       1.0  T
   5     -9.2378756 -0.613362E-01  0.206E+00    0.33       1.0  T
   6     -9.2755645 -0.376889E-01  0.115E+00    0.32       1.0  T
   7     -9.2876803 -0.121157E-01  0.564E-01    0.34       1.0  T
   8     -9.2907693 -0.308905E-02  0.314E-01    0.33       1.0  T
   9     -9.2915446 -0.775253E-03  0.214E-01    0.34       1.0  T
  10     -9.2915431  0.147957E-05  0.213E-01    0.34       1.0  T
  11     -9.2922713 -0.728168E-03  0.102E-01    0.34       1.0  T
  12     -9.2922636  0.765760E-05  0.775E-02    0.34       1.0  T
  13     -9.2922221  0.414962E-04  0.604E-02    0.34       1.0  T
  14     -9.2922812 -0.591286E-04  0.516E-02    0.34       1.0  T
  15     -9.2922786  0.261426E-05  0.407E-02    0.34       1.0  T
  16     -9.2922847 -0.611511E-05  0.205E-02    0.34       1.5  T
  17     -9.2922885 -0.372612E-05  0.648E-03    0.34       4.7  T
  18     -9.2922889 -0.403358E-06  0.288E-03    0.34      10.5  T
  19     -9.2922890 -0.118954E-06  0.468E-04    0.34      64.4  T
  20     -9.2922890  0.351115E-09  0.304E-04    0.34      99.2  T
     SCC iter.                  ...        0 min,  0.003 sec
     gradient                   ...        0 min,  0.000 sec
 * total energy  :    -9.0988473 Eh     change       -0.6172316E-03 Eh
   gradient norm :     0.0034566 Eh/α   predicted    -0.5140189E-03 ( -16.72%)
   displ. norm   :     0.3807102 α      lambda       -0.4271206E-03
   maximum displ.:     0.1724599 α      in ANC's #5, #8, #13, ...

........................................................................
.............................. CYCLE   28 ..............................
........................................................................
   1     -9.2929200 -0.929292E+01  0.770E-01    0.32       0.0  T
   2     -9.1298260  0.163094E+00  0.304E+00    0.28       1.0  T
   3     -9.2716860 -0.141860E+00  0.145E+00    0.33       1.0  T
   4     -9.1946917  0.769942E-01  0.236E+00    0.23       1.0  T
   5     -9.2627770 -0.680853E-01  0.164E+00    0.34       1.0  T
   6     -9.2852958 -0.225188E-01  0.801E-01    0.33       1.0  T
   7     -9.2888066 -0.351078E-02  0.553E-01    0.33       1.0  T
   8     -9.2923686 -0.356205E-02  0.285E-01    0.33       1.0  T
   9     -9.2930874 -0.718741E-03  0.196E-01    0.33       1.0  T
  10     -9.2930732  0.142021E-04  0.196E-01    0.33       1.0  T
  11     -9.2934601 -0.386914E-03  0.110E-01    0.33       1.0  T
  12     -9.2935196 -0.595287E-04  0.733E-02    0.33       1.0  T
  13     -9.2935584 -0.387876E-04  0.578E-02    0.33       1.0  T
  14     -9.2935912 -0.328460E-04  0.300E-02    0.33       1.0  T
  15     -9.2935972 -0.597013E-05  0.148E-02    0.33       2.0  T
  16     -9.2935993 -0.208591E-05  0.738E-03    0.33       4.1  T
  17     -9.2935998 -0.529930E-06  0.348E-03    0.33       8.7  T
  18     -9.2936000 -0.131367E-06  0.151E-03    0.33      20.0  T
  19     -9.2936000 -0.310923E-07  0.265E-04    0.33     113.9  T
  20     -9.2936000 -0.873086E-09  0.960E-05    0.33     314.2  T
     SCC iter.                  ...        0 min,  0.003 sec
     gradient                   ...        0 min,  0.001 sec
 * total energy  :    -9.0991025 Eh     change       -0.2551206E-03 Eh
   gradient norm :     0.0070429 Eh/α   predicted    -0.2445112E-03 (  -4.16%)
   displ. norm   :     0.3556568 α      lambda       -0.3508874E-03
   maximum displ.:     0.1705829 α      in ANC's #5, #8, #11, ...

........................................................................
.............................. CYCLE   29 ..............................
........................................................................
   1     -9.2904137 -0.929041E+01  0.678E-01    0.32       0.0  T
   2     -9.1655660  0.124848E+00  0.280E+00    0.28       1.0  T
   3     -9.2790905 -0.113524E+00  0.108E+00    0.32       1.0  T
   4     -9.2123524  0.667380E-01  0.219E+00    0.24       1.0  T
   5     -9.2720522 -0.596997E-01  0.127E+00    0.33       1.0  T
   6     -9.2871827 -0.151305E-01  0.515E-01    0.32       1.0  T
   7     -9.2896572 -0.247450E-02  0.264E-01    0.32       1.0  T
   8     -9.2907561 -0.109893E-02  0.120E-01    0.32       1.0  T
   9     -9.2907824 -0.262247E-04  0.117E-01    0.32       1.0  T
  10     -9.2907625  0.198265E-04  0.113E-01    0.32       1.0  T
  11     -9.2908180 -0.554940E-04  0.814E-02    0.32       1.0  T
  12     -9.2908090  0.898067E-05  0.525E-02    0.32       1.0  T
  13     -9.2908138 -0.474458E-05  0.462E-02    0.32       1.0  T
  14     -9.2908375 -0.237128E-04  0.192E-02    0.32       1.6  T
  15     -9.2908404 -0.291901E-05  0.111E-02    0.32       2.7  T
  16     -9.2908411 -0.709281E-06  0.601E-03    0.32       5.0  T
  17     -9.2908415 -0.372903E-06  0.165E-03    0.32      18.3  T
  18     -9.2908415 -0.328461E-07  0.383E-04    0.32      78.7  T
  19     -9.2908415 -0.559918E-09  0.671E-05    0.32     449.3  T
     SCC iter.                  ...        0 min,  0.004 sec
     gradient                   ...        0 min,  0.001 sec
 * total energy  :    -9.0991882 Eh     change       -0.8575283E-04 Eh
   gradient norm :     0.0105541 Eh/α   predicted    -0.1976358E-03 ( 130.47%)
   displ. norm   :     0.1466968 α      lambda       -0.3540064E-03
   maximum displ.:     0.0636540 α      in ANC's #6, #9, #5, ...

........................................................................
.............................. CYCLE   30 ..............................
........................................................................
   1     -9.2940328 -0.929403E+01  0.388E-01    0.32       0.0  T
   2     -9.1978933  0.961395E-01  0.248E+00    0.27       1.0  T
   3     -9.2903882 -0.924949E-01  0.583E-01    0.33       1.0  T
   4     -9.2927598 -0.237161E-02  0.371E-01    0.32       1.0  T
   5     -9.2931056 -0.345798E-03  0.442E-01    0.32       1.0  T
   6     -9.2885216  0.458400E-02  0.783E-01    0.32       1.0  T
   7     -9.2892196 -0.697980E-03  0.761E-01    0.32       1.0  T
   8     -9.2834580  0.576156E-02  0.109E+00    0.32       1.0  T
   9     -9.2941484 -0.106903E-01  0.316E-01    0.32       1.0  T
  10     -9.2944738 -0.325405E-03  0.243E-01    0.32       1.0  T
  11     -9.2949294 -0.455614E-03  0.909E-02    0.32       1.0  T
  12     -9.2950024 -0.729780E-04  0.598E-03    0.32       5.0  T
  13     -9.2950023  0.403485E-07  0.576E-03    0.32       5.2  T
  14     -9.2949909  0.114321E-04  0.384E-02    0.32       1.0  T
  15     -9.2949950 -0.412767E-05  0.303E-02    0.32       1.0  T
  16     -9.2950016 -0.662658E-05  0.976E-03    0.32       3.1  T
  17     -9.2950025 -0.848023E-06  0.303E-04    0.32      99.5  T
  18     -9.2950025 -0.437778E-09  0.428E-04    0.32      70.4  T
     SCC iter.                  ...        0 min,  0.003 sec
     gradient                   ...        0 min,  0.000 sec
 * total energy  :    -9.0994057 Eh     change       -0.2174632E-03 Eh
   gradient norm :     0.0067312 Eh/α   predicted    -0.1808118E-03 ( -16.85%)
   displ. norm   :     0.3315446 α      lambda       -0.3424934E-03
   maximum displ.:     0.1638495 α      in ANC's #5, #15, #8, ...

........................................................................
.............................. CYCLE   31 ..............................
........................................................................
   1     -9.2880610 -0.928806E+01  0.952E-01    0.31       0.0  T
   2     -8.8210384  0.467023E+00  0.440E+00    0.42       1.0  T
   3     -9.2442796 -0.423241E+00  0.195E+00    0.31       1.0  T
   4     -9.2415732  0.270647E-02  0.193E+00    0.30       1.0  T
   5     -9.2395851  0.198811E-02  0.149E+00    0.39       1.0  T
   6     -9.2734407 -0.338556E-01  0.154E+00    0.33       1.0  T
   7     -9.2891172 -0.156764E-01  0.791E-01    0.31       1.0  T
   8     -9.2897801 -0.662907E-03  0.737E-01    0.32       1.0  T
   9     -9.2880172  0.176290E-02  0.805E-01    0.31       1.0  T
  10     -9.2901367 -0.211955E-02  0.520E-01    0.31       1.0  T
  11     -9.2914663 -0.132959E-02  0.260E-01    0.31       1.0  T
  12     -9.2916347 -0.168425E-03  0.879E-02    0.31       1.0  T
  13     -9.2916346  0.157530E-06  0.116E-01    0.32       1.0  T
  14     -9.2916225  0.120698E-04  0.101E-01    0.32       1.0  T
  15     -9.2916923 -0.698114E-04  0.112E-02    0.31       2.7  T
  16     -9.2916925 -0.152133E-06  0.197E-02    0.31       1.5  T
  17     -9.2916930 -0.513867E-06  0.150E-02    0.31       2.0  T
  18     -9.2916934 -0.420468E-06  0.947E-03    0.31       3.2  T
  19     -9.2916938 -0.369221E-06  0.589E-04    0.31      51.2  T
  20     -9.2916938  0.890020E-08  0.117E-03    0.31      25.8  T
  21     -9.2916938 -0.104466E-07  0.898E-05    0.31     335.7  T
     SCC iter.                  ...        0 min,  0.003 sec
     gradient                   ...        0 min,  0.000 sec
 * total energy  :    -9.0995177 Eh     change       -0.1119795E-03 Eh
   gradient norm :     0.0105479 Eh/α   predicted    -0.1900728E-03 (  69.74%)
   displ. norm   :     0.2468229 α      lambda       -0.3848223E-03
   maximum displ.:     0.1181955 α      in ANC's #5, #6, #13, ...

........................................................................
.............................. CYCLE   32 ..............................
........................................................................
   1     -9.2923227 -0.929232E+01  0.444E-01    0.32       0.0  T
   2     -9.2126371  0.796856E-01  0.233E+00    0.27       1.0  T
   3     -9.2825141 -0.698770E-01  0.928E-01    0.31       1.0  T
[...]
   maximum displ.:     0.0839324 α      in ANC's #8, #7, #3, ...

........................................................................
.............................. CYCLE  167 ..............................
........................................................................
   1     -9.4273888 -0.942739E+01  0.179E-01    0.05       0.0  T
   2     -9.4273137  0.751265E-04  0.153E-01    0.05       1.0  T
   3     -9.4260697  0.124397E-02  0.464E-01    0.08       1.0  T
   4     -9.4273675 -0.129782E-02  0.599E-02    0.05       1.0  T
   5     -9.4273825 -0.149587E-04  0.324E-02    0.05       1.0  T
   6     -9.4273796  0.289290E-05  0.446E-02    0.05       1.0  T
   7     -9.4273864 -0.682218E-05  0.271E-02    0.05       1.1  T
   8     -9.4273909 -0.445783E-05  0.465E-03    0.05       6.5  T
   9     -9.4273909 -0.627978E-07  0.258E-03    0.05      11.7  T
  10     -9.4273910 -0.254040E-07  0.609E-04    0.05      49.5  T
  11     -9.4273910 -0.153982E-08  0.381E-04    0.05      79.2  T
     SCC iter.                  ...        0 min,  0.002 sec
     gradient                   ...        0 min,  0.001 sec
 * total energy  :    -9.2579323 Eh     change       -0.6765506E-05 Eh
   gradient norm :     0.0004503 Eh/α   predicted    -0.3083039E-05 ( -54.43%)
   displ. norm   :     0.1192934 α      lambda       -0.4822144E-05
   maximum displ.:     0.0784532 α      in ANC's #8, #7, #3, ...

........................................................................
.............................. CYCLE  168 ..............................
........................................................................
   1     -9.4274590 -0.942746E+01  0.147E-01    0.05       0.0  T
   2     -9.4272836  0.175368E-03  0.188E-01    0.04       1.0  T
   3     -9.4269605  0.323172E-03  0.299E-01    0.07       1.0  T
   4     -9.4274249 -0.464437E-03  0.781E-02    0.05       1.0  T
   5     -9.4274497 -0.247695E-04  0.424E-02    0.05       1.0  T
   6     -9.4274562 -0.649529E-05  0.345E-02    0.05       1.0  T
   7     -9.4274621 -0.595937E-05  0.114E-02    0.05       2.6  T
   8     -9.4274630 -0.863146E-06  0.159E-03    0.05      19.0  T
   9     -9.4274630 -0.149739E-07  0.382E-04    0.05      79.0  T
  10     -9.4274630  0.133697E-09  0.304E-04    0.05      99.3  T
     SCC iter.                  ...        0 min,  0.001 sec
     gradient                   ...        0 min,  0.001 sec
 * total energy  :    -9.2579376 Eh     change       -0.5341206E-05 Eh
   gradient norm :     0.0004160 Eh/α   predicted    -0.2426279E-05 ( -54.57%)
   displ. norm   :     0.1013828 α      lambda       -0.3512223E-05
   maximum displ.:     0.0641501 α      in ANC's #8, #7, #3, ...

........................................................................
.............................. CYCLE  169 ..............................
........................................................................
   1     -9.4274609 -0.942746E+01  0.102E-01    0.05       0.0  T
   2     -9.4274294  0.314961E-04  0.934E-02    0.05       1.0  T
   3     -9.4270736  0.355733E-03  0.253E-01    0.07       1.0  T
   4     -9.4274424 -0.368791E-03  0.572E-02    0.05       1.0  T
   5     -9.4274513 -0.883652E-05  0.400E-02    0.05       1.0  T
   6     -9.4274604 -0.918913E-05  0.149E-02    0.05       2.0  T
   7     -9.4274606 -0.131011E-06  0.136E-02    0.05       2.2  T
   8     -9.4274617 -0.114952E-05  0.181E-03    0.05      16.7  T
   9     -9.4274617 -0.237786E-07  0.390E-04    0.05      77.3  T
  10     -9.4274617 -0.430873E-09  0.150E-04    0.05     201.4  T
     SCC iter.                  ...        0 min,  0.001 sec
     gradient                   ...        0 min,  0.001 sec
 * total energy  :    -9.2579416 Eh     change       -0.3954239E-05 Eh
   gradient norm :     0.0005163 Eh/α   predicted    -0.1762901E-05 ( -55.42%)
   displ. norm   :     0.0852662 α      lambda       -0.3049425E-05
   maximum displ.:     0.0486632 α      in ANC's #8, #7, #9, ...

   *** GEOMETRY OPTIMIZATION CONVERGED AFTER 169 ITERATIONS ***

------------------------------------------------------------------------
 total energy gain   :        -0.6718590 Eh     -421.5979 kcal/mol
 total RMSD          :         5.5358820 a0        2.9295 Å
 total power (kW/mol):       -10.4376656 (step)-2998.7530 (real)
------------------------------------------------------------------------

 ANCopt (total)                0 d,  0 h,  0 min,  0.588 sec
 optimizer setup                ...        0 min,  0.000 sec (  0.004%)
 model hessian                  ...        0 min,  0.001 sec (  0.143%)
 ANC generation                 ...        0 min,  0.001 sec (  0.092%)
 coordinate transformation      ...        0 min,  0.000 sec (  0.082%)
 single point calculation       ...        0 min,  0.572 sec ( 97.164%)
 optimization log               ...        0 min,  0.005 sec (  0.787%)
 hessian update                 ...        0 min,  0.004 sec (  0.696%)
 rational function              ...        0 min,  0.003 sec (  0.569%)

================
 final structure:
================
11
 xtb: 6.5.1 (conda-forge)
Be           3.15928025583893        0.84309049375182        0.88626399467101
B            2.35538508140603        0.54160726957990        2.45223037094007
B            1.66308620824796        0.30938029115769        3.80568500349418
B            1.13161958227389       -0.51619682665718        5.03471964773896
C            0.90957340794075        0.85575723449211        5.09596448332451
H            0.58807764542787        1.81133412627476        5.45798835230664
H            3.75052234948173        1.15398359664347       -0.24268072742295
H            3.82870059558627        2.31251817014654        3.53103555244992
H            4.22995029858572        2.87939949904782        3.90986306019653
H            0.94315170760513       -1.84095676239762        5.76275485323451
H            0.77165286770453       -2.55793909198188        6.29867540915039

 Bond Distances (Angstroems)
 ---------------------------
Be1-B2=1.7859        Be1-H7=1.3118        B2-Be1=1.7859        B2-B3=1.5379         B3-B2=1.5379         B3-B4=1.5731         
B3-C5=1.5910         B4-B3=1.5731         B4-C5=1.3912         C5-B3=1.5910         C5-B4=1.3912         C5-H6=1.0712         
H6-C5=1.0712         H7-Be1=1.3118        H8-H9=0.7911         H9-H8=0.7911         
 H  H  Rav=0.7911 sigma=0.0000  Rmin=0.7911  Rmax=0.7911     1
 Be H  Rav=1.3118 sigma=0.0000  Rmin=1.3118  Rmax=1.3118     1
 B  Be Rav=1.7859 sigma=0.0000  Rmin=1.7859  Rmax=1.7859     1
 B  B  Rav=1.5555 sigma=0.0176  Rmin=1.5379  Rmax=1.5731     2
 C  H  Rav=1.0712 sigma=0.0000  Rmin=1.0712  Rmax=1.0712     1
 C  B  Rav=1.4911 sigma=0.0999  Rmin=1.3912  Rmax=1.5910     2

 selected bond angles (degree)
 --------------------
H7-Be1-B2=175.98               B3-B2-Be1=178.96               B4-B3-B2=156.77                C5-B3-B2=151.06                
C5-B3-B4= 52.16                C5-B4-B3= 64.58                B4-C5-B3= 63.26                H6-C5-B3=136.27                
H6-C5-B4=160.48                

 selected dihedral angles (degree)
 ---------------------------------
B3-B2-Be1-H7=  1.91           B4-B3-B2-Be1=192.59           C5-B3-B2-Be1= 10.78           C5-B4-B3-B2=178.89            
B4-C5-B3-B2=180.90            H6-C5-B3-B2=  0.84            H6-C5-B3-B4=179.94            H6-C5-B4-B3=180.13            

 CMA Distance (Angstroems)
 ---------------------------
R(CMA):  3.6266
           -------------------------------------------------
          |                Final Singlepoint                |
           -------------------------------------------------

          ...................................................
          :                      SETUP                      :
          :.................................................:
          :  # basis functions                  26          :
          :  # atomic orbitals                  26          :
          :  # shells                           16          :
          :  # electrons                        21          :
          :  max. iterations                   250          :
          :  Hamiltonian                  GFN2-xTB          :
          :  restarted?                      false          :
          :  GBSA solvation                  false          :
          :  PC potential                    false          :
          :  electronic temp.          300.0000000     K    :
          :  accuracy                    1.0000000          :
          :  -> integral cutoff          0.2500000E+02      :
          :  -> integral neglect         0.1000000E-07      :
          :  -> SCF convergence          0.1000000E-05 Eh   :
          :  -> wf. convergence          0.1000000E-03 e    :
          :  Broyden damping             0.4000000          :
          ...................................................

 iter      E             dE          RMSdq      gap      omega  full diag
   1     -9.4274617 -0.942746E+01  0.621E-05    0.05       0.0  T
   2     -9.4274617  0.919330E-09  0.402E-04    0.05      75.1  T
   3     -9.4274617 -0.925191E-09  0.631E-05    0.05     477.5  T

   *** convergence criteria satisfied after 3 iterations ***

         #    Occupation            Energy/Eh            Energy/eV
      -------------------------------------------------------------
         1        2.0000           -0.5160330             -14.0420
       ...           ...                  ...                  ...
         5        2.0000           -0.4079395             -11.1006
         6        2.0000           -0.3880539             -10.5595
         7        2.0000           -0.3544387              -9.6448
         8        2.0000           -0.3477312              -9.4622
         9        2.0000           -0.3277310              -8.9180
        10        2.0000           -0.3104183              -8.4469
        11        0.7377           -0.2613407              -7.1114 (HOMO)
        12        0.2623           -0.2593755              -7.0580 (LUMO)
        13                         -0.2058706              -5.6020
        14                         -0.1388926              -3.7795
        15                         -0.1118804              -3.0444
        16                         -0.0824293              -2.2430
       ...                                ...                  ...
        26                          1.0593298              28.8258
      -------------------------------------------------------------
                  HL-Gap            0.0019652 Eh            0.0535 eV
             Fermi-level           -0.2731470 Eh           -7.4327 eV

 SCC (total)                   0 d,  0 h,  0 min,  0.001 sec
 SCC setup                      ...        0 min,  0.000 sec (  1.825%)
 Dispersion                     ...        0 min,  0.000 sec (  2.947%)
 classical contributions        ...        0 min,  0.000 sec (  4.297%)
 integral evaluation            ...        0 min,  0.000 sec (  8.614%)
 iterations                     ...        0 min,  0.000 sec ( 32.877%)
 molecular gradient             ...        0 min,  0.001 sec ( 40.426%)
 printout                       ...        0 min,  0.000 sec (  7.796%)

         :::::::::::::::::::::::::::::::::::::::::::::::::::::
         ::                     SUMMARY                     ::
         :::::::::::::::::::::::::::::::::::::::::::::::::::::
         :: total energy              -9.257941564238 Eh    ::
         :: gradient norm              0.000517170041 Eh/a0 ::
         :: HOMO-LUMO gap              0.053476182270 eV    ::
         ::.................................................::
         :: SCC energy                -9.427461745666 Eh    ::
         :: -> isotropic ES            0.004453642013 Eh    ::
         :: -> anisotropic ES          0.013884343698 Eh    ::
         :: -> anisotropic XC         -0.003540697904 Eh    ::
         :: -> dispersion             -0.005146182546 Eh    ::
         :: repulsion energy           0.169522683122 Eh    ::
         :: add. restraining           0.000000000000 Eh    ::
         :: total charge              -0.000000000001 e     ::
         :::::::::::::::::::::::::::::::::::::::::::::::::::::

           -------------------------------------------------
          |                Property Printout                |
           -------------------------------------------------

    * Orbital Energies and Occupations

         #    Occupation            Energy/Eh            Energy/eV
      -------------------------------------------------------------
         1        2.0000           -0.5160330             -14.0420
         2        2.0000           -0.4750234             -12.9260
         3        2.0000           -0.4604791             -12.5303
         4        2.0000           -0.4452332             -12.1154
         5        2.0000           -0.4079395             -11.1006
         6        2.0000           -0.3880539             -10.5595
         7        2.0000           -0.3544387              -9.6448
         8        2.0000           -0.3477312              -9.4622
         9        2.0000           -0.3277310              -8.9180
        10        2.0000           -0.3104183              -8.4469
        11        0.7377           -0.2613407              -7.1114 (HOMO)
        12        0.2623           -0.2593755              -7.0580 (LUMO)
        13                         -0.2058706              -5.6020
        14                         -0.1388926              -3.7795
        15                         -0.1118804              -3.0444
        16                         -0.0824293              -2.2430
        17                         -0.0242713              -0.6605
        18                          0.1309173               3.5624
        19                          0.1378175               3.7502
        20                          0.1975109               5.3745
        21                          0.2269309               6.1751
        22                          0.2938747               7.9967
       ...                                ...                  ...
        26                          1.0593298              28.8258
      -------------------------------------------------------------
                  HL-Gap            0.0019652 Eh            0.0535 eV
             Fermi-level           -0.2731470 Eh           -7.4327 eV

     #   Z          covCN         q      C6AA      α(0)
     1   4 Be       1.786     0.406    14.820     8.929
     2   5 B        1.881    -0.025    45.343    14.179
     3   5 B        2.849     0.057    20.458     7.552
     4   5 B        2.174     0.104    37.084    12.552
     5   6 C        2.731    -0.191    33.001     9.405
     6   1 H        0.926    -0.025     3.528     2.937
     7   1 H        0.882    -0.338    30.609     8.660
     8   1 H        0.765    -0.000     3.152     2.797
     9   1 H        0.765    -0.013     3.388     2.900
    10   1 H        0.522     0.053     3.295     3.069
    11   1 H        0.231    -0.028     8.695     5.374

 Mol. C6AA /au·bohr⁶  :       1788.970673
 Mol. C8AA /au·bohr⁸  :      47735.525027
 Mol. α(0) /au        :         78.355126


Wiberg/Mayer (AO) data.
largest (>0.10) Wiberg bond orders for each atom

 ---------------------------------------------------------------------------
     #   Z sym  total        # sym  WBO       # sym  WBO       # sym  WBO
 ---------------------------------------------------------------------------
     1   4 Be   1.936 --     2 B    1.010     7 H    0.879
     2   5 B    2.551 --     3 B    1.320     1 Be   1.010     4 B    0.114
     3   5 B    3.444 --     2 B    1.320     4 B    1.035     5 C    0.969
     4   5 B    3.287 --     5 C    1.806     3 B    1.035    10 H    0.260
                             2 B    0.114
     5   6 C    3.849 --     4 B    1.806     6 H    0.975     3 B    0.969
     6   1 H    0.998 --     5 C    0.975
     7   1 H    0.885 --     1 Be   0.879
     8   1 H    0.999 --     9 H    0.971
     9   1 H    0.984 --     8 H    0.971
    10   1 H    0.990 --    11 H    0.724     4 B    0.260
    11   1 H    0.909 --    10 H    0.724
 ---------------------------------------------------------------------------

Topologies differ in total number of bonds
Writing topology from bond orders to xtbtopo.mol

molecular dipole:
                 x           y           z       tot (Debye)
 q only:       -0.085      -0.695       0.167
   full:       -0.261      -0.629       0.529       2.191
molecular quadrupole (traceless):
                xx          xy          yy          xz          yz          zz
 q only:        0.531      -4.344       2.916       6.582      -6.250      -3.446
  q+dip:       -6.701      -3.267       1.345       2.143      -7.211       5.357
   full:       -4.059      -4.022       2.428       6.486      -5.655       1.631

           -------------------------------------------------
          |                Geometry Summary                 |
           -------------------------------------------------

      molecular mass/u    :       59.5036476
   center of mass at/Å    :        1.8368380       0.4249148       3.6332627
  moments of inertia/u·Å² :        0.4010281E+02   0.2197578E+03   0.2447166E+03
rotational constants/cm⁻¹ :        0.4203604E+00   0.7671004E-01   0.6888635E-01

 * 7 selected distances

     #   Z          #   Z                                           value/Å
     1   4 Be       2   5 B                                       1.7858866 (max)
     2   5 B        3   5 B                                       1.5378709
     3   5 B        4   5 B                                       1.5730737
     4   5 B        5   6 C                                       1.3911555
     5   6 C        6   1 H                                       1.0712368
     1   4 Be       7   1 H                                       1.3117691
     8   1 H        9   1 H                                       0.7911170 (min)

 * 6 distinct bonds (by element types)

   Z      Z             #   av. dist./Å        max./Å        min./Å
   1 H    1 H           1     0.7911170     0.7911170     0.7911170
   1 H    4 Be          1     1.3117691     1.3117691     1.3117691
   4 Be   5 B           1     1.7858866     1.7858866     1.7858866
Note: The following floating-point exceptions are signalling: IEEE_UNDERFLOW_FLAG
normal termination of xtb
   5 B    5 B           2     1.5554723     1.5730737     1.5378709
   1 H    6 C           1     1.0712368     1.0712368     1.0712368
   5 B    6 C           1     1.3911555     1.3911555     1.3911555


optimized geometry written to: xtbopt.xyz


           -------------------------------------------------
          | TOTAL ENERGY               -9.257941564238 Eh   |
          | GRADIENT NORM               0.000517170041 Eh/α |
          | HOMO-LUMO GAP               0.053476182270 eV   |
           -------------------------------------------------
########################################################################
[WARNING] Runtime exception occurred
-2- restart_readRestart: Dimension missmatch in restart file.
-1- restart_readRestart: Number of electron missmatch in restart file.
########################################################################

------------------------------------------------------------------------
 * finished run on 2025/06/07 at 03:27:46.050     
------------------------------------------------------------------------
 total:
 * wall-time:     0 d,  0 h,  0 min,  0.609 sec
 *  cpu-time:     0 d,  0 h,  0 min,  8.498 sec
 * ratio c/w:    13.957 speedup
 SCF:
 * wall-time:     0 d,  0 h,  0 min,  0.016 sec
 *  cpu-time:     0 d,  0 h,  0 min,  0.188 sec
 * ratio c/w:    11.905 speedup
 ANC optimizer:
 * wall-time:     0 d,  0 h,  0 min,  0.590 sec
 *  cpu-time:     0 d,  0 h,  0 min,  8.277 sec
 * ratio c/w:    14.027 speedup

