      -----------------------------------------------------------      
     |                   =====================                   |     
     |                           x T B                           |     
     |                   =====================                   |     
     |                         S. Grimme                         |     
     |          Mulliken Center for Theoretical Chemistry        |     
     |                    University of Bonn                     |     
      -----------------------------------------------------------      

   * xtb version 6.5.1 (conda-forge) compiled by 'runner@Mac-1657629245115.local' on 2022-07-12

   xtb is free software: you can redistribute it and/or modify it under
   the terms of the GNU Lesser General Public License as published by
   the Free Software Foundation, either version 3 of the License, or
   (at your option) any later version.
   
   xtb is distributed in the hope that it will be useful,
   but WITHOUT ANY WARRANTY; without even the implied warranty of
   MERCHANTABILITY or FITNESS FOR A PARTICULAR PURPOSE.  See the
   GNU Lesser General Public License for more details.
   
   Cite this work as:
   * C. Bannwarth, E. Caldeweyher, S. Ehlert, A. Hansen, P. Pracht,
     J. Seibert, S. Spicher, S. Grimme, WIREs Comput. Mol. Sci., 2020, 11,
     e01493. DOI: 10.1002/wcms.1493
   
   for GFN2-xTB:
   * C. Bannwarth, S. Ehlert and S. Grimme., J. Chem. Theory Comput., 2019,
     15, 1652-1671. DOI: 10.1021/acs.jctc.8b01176
   for GFN1-xTB:
   * S. Grimme, C. Bannwarth, P. Shushkov, J. Chem. Theory Comput., 2017,
     13, 1989-2009. DOI: 10.1021/acs.jctc.7b00118
   for GFN0-xTB:
   * P. Pracht, E. Caldeweyher, S. Ehlert, S. Grimme, ChemRxiv, 2019, preprint.
     DOI: 10.26434/chemrxiv.8326202.v1
   for GFN-FF:
   * S. Spicher and S. Grimme, Angew. Chem. Int. Ed., 2020, 59, 15665-15673.
     DOI: 10.1002/anie.202004239
   
   for ALPB and GBSA implicit solvation:
   * S. Ehlert, M. Stahn, S. Spicher, S. Grimme, J. Chem. Theory Comput.,
     2021, 17, 4250-4261. DOI: 10.1021/acs.jctc.1c00471
   
   for DFT-D4:
   * E. Caldeweyher, C. Bannwarth and S. Grimme, J. Chem. Phys., 2017,
     147, 034112. DOI: 10.1063/1.4993215
   * E. Caldeweyher, S. Ehlert, A. Hansen, H. Neugebauer, S. Spicher,
     C. Bannwarth and S. Grimme, J. Chem. Phys., 2019, 150, 154122.
     DOI: 10.1063/1.5090222
   * E. Caldeweyher, J.-M. Mewes, S. Ehlert and S. Grimme, Phys. Chem. Chem. Phys.
     2020, 22, 8499-8512. DOI: 10.1039/D0CP00502A
   
   for sTDA-xTB:
   * S. Grimme and C. Bannwarth, J. Chem. Phys., 2016, 145, 054103.
     DOI: 10.1063/1.4959605
   
   in the mass-spec context:
   * V. Asgeirsson, C. Bauer and S. Grimme, Chem. Sci., 2017, 8, 4879.
     DOI: 10.1039/c7sc00601b
   * J. Koopman and S. Grimme, ACS Omega 2019, 4, 12, 15120-15133.
     DOI: 10.1021/acsomega.9b02011
   
   for metadynamics refer to:
   * S. Grimme, J. Chem. Theory Comput., 2019, 155, 2847-2862
     DOI: 10.1021/acs.jctc.9b00143
   
   for SPH calculations refer to:
   * S. Spicher and S. Grimme, J. Chem. Theory Comput., 2021, 17, 1701-1714
     DOI: 10.1021/acs.jctc.0c01306
   
   with help from (in alphabetical order)
   P. Atkinson, C. Bannwarth, F. Bohle, G. Brandenburg, E. Caldeweyher
   M. Checinski, S. Dohm, S. Ehlert, S. Ehrlich, I. Gerasimov, C. Hölzer
   A. Katbashev, J. Koopman, C. Lavigne, S. Lehtola, F. März, M. Müller,
   F. Musil, H. Neugebauer, J. Pisarek, C. Plett, P. Pracht, F. Pultar,
   J. Seibert, P. Shushkov, S. Spicher, M. Stahn, M. Steiner, T. Strunk,
   J. Stückrath, T. Rose, and J. Unsleber
   
 * started run on 2025/06/07 at 03:27:44.956     

           -------------------------------------------------
          |                Calculation Setup                |
           -------------------------------------------------

          program call               : xtb B3BeCH4.xyz --gfn 2 --opt
          coordinate file            : B3BeCH4.xyz
          omp threads                :                    16

   ID    Z sym.   atoms
    1    4 Be     1
    2    5 B      2-4
    3    6 C      5
    4    1 H      6-9

molecular fragmentation (1/2 indicates fragments):
122222222
# atoms in fragment 1/2:     1     8
 fragment masses (1/2) :        9.01       48.48
CMA distance (Bohr)    :   5.893
constraining FC (au)   :  0.0500

           -------------------------------------------------
          |                 G F N 2 - x T B                 |
           -------------------------------------------------

        Reference                      10.1021/acs.jctc.8b01176
      * Hamiltonian:
        H0-scaling (s, p, d)           1.850000    2.230000    2.230000
        zeta-weighting                 0.500000
      * Dispersion:
        s8                             2.700000
        a1                             0.520000
        a2                             5.000000
        s9                             5.000000
      * Repulsion:
        kExp                           1.500000    1.000000
        rExp                           1.000000
      * Coulomb:
        alpha                          2.000000
        third order                    shell-resolved
        anisotropic                    true
        a3                             3.000000
        a5                             4.000000
        cn-shift                       1.200000
        cn-exp                         4.000000
        max-rad                        5.000000


          ...................................................
          :                      SETUP                      :
          :.................................................:
          :  # basis functions                  24          :
          :  # atomic orbitals                  24          :
          :  # shells                           14          :
          :  # electrons                        19          :
          :  max. iterations                   250          :
          :  Hamiltonian                  GFN2-xTB          :
          :  restarted?                      false          :
          :  GBSA solvation                  false          :
          :  PC potential                    false          :
          :  electronic temp.          300.0000000     K    :
          :  accuracy                    1.0000000          :
          :  -> integral cutoff          0.2500000E+02      :
          :  -> integral neglect         0.1000000E-07      :
          :  -> SCF convergence          0.1000000E-05 Eh   :
          :  -> wf. convergence          0.1000000E-03 e    :
          :  Broyden damping             0.4000000          :
          ...................................................

 iter      E             dE          RMSdq      gap      omega  full diag
   1     13.8553969  0.138554E+02  0.240E+01    0.19       0.0  T
   2     -1.0415056 -0.148969E+02  0.233E+01    0.83       1.0  T
   3     -0.6631238  0.378382E+00  0.201E+01    0.92       1.0  T
   4     -2.1427258 -0.147960E+01  0.164E+01    0.38       1.0  T
   5     -1.8375374  0.305188E+00  0.173E+01    0.42       1.0  T
   6     -5.5308438 -0.369331E+01  0.960E+00    0.14       1.0  T
   7     -5.8597930 -0.328949E+00  0.120E+01    0.46       1.0  T
   8     -6.4837898 -0.623997E+00  0.102E+01    0.31       1.0  T
   9     -6.4482032  0.355865E-01  0.957E+00    0.22       1.0  T
  10     -6.5607542 -0.112551E+00  0.987E+00    0.29       1.0  T
  11     -6.3283630  0.232391E+00  0.710E+00    0.30       1.0  T
  12     12.1962236  0.185246E+02  0.245E+01    0.17       1.0  T
  13     -6.9760213 -0.191722E+02  0.826E+00    0.46       1.0  T
  14     -7.4247301 -0.448709E+00  0.452E+00    0.38       1.0  T
  15     -6.7867603  0.637970E+00  0.479E+00    0.41       1.0  T
  16     -7.0551035 -0.268343E+00  0.395E+00    0.42       1.0  T
  17     -6.5974781  0.457625E+00  0.500E+00    0.36       1.0  T
  18     -7.0706593 -0.473181E+00  0.357E+00    0.41       1.0  T
  19     -7.1506024 -0.799431E-01  0.364E+00    0.41       1.0  T
  20     -7.2982940 -0.147692E+00  0.351E+00    0.38       1.0  T
  21     -7.2903907  0.790329E-02  0.338E+00    0.38       1.0  T
  22     -7.5812379 -0.290847E+00  0.412E+00    0.39       1.0  T
  23     -7.5755297  0.570819E-02  0.427E+00    0.39       1.0  T
  24     -7.5765013 -0.971575E-03  0.424E+00    0.39       1.0  T
  25     -7.5799867 -0.348544E-02  0.418E+00    0.39       1.0  T
  26     -7.5848273 -0.484060E-02  0.407E+00    0.39       1.0  T
  27     -7.5859824 -0.115510E-02  0.405E+00    0.39       1.0  T
  28     -7.5865838 -0.601359E-03  0.403E+00    0.39       1.0  T
  29     -7.5863962  0.187541E-03  0.380E+00    0.39       1.0  T
  30     -7.5925749 -0.617861E-02  0.336E+00    0.38       1.0  T
  31     -7.5933353 -0.760467E-03  0.310E+00    0.38       1.0  T
  32     -7.5922788  0.105655E-02  0.290E+00    0.37       1.0  T
  33     -7.5875167  0.476208E-02  0.266E+00    0.37       1.0  T
  34     -7.5956402 -0.812352E-02  0.262E+00    0.37       1.0  T
  35     -7.5953690  0.271270E-03  0.259E+00    0.37       1.0  T
  36     -7.5975342 -0.216523E-02  0.234E+00    0.37       1.0  T
  37     -7.5977814 -0.247187E-03  0.227E+00    0.37       1.0  T
  38     -7.5983395 -0.558173E-03  0.172E+00    0.36       1.0  T
  39     -7.5994312 -0.109162E-02  0.143E+00    0.36       1.0  T
  40     -7.5993147  0.116416E-03  0.135E+00    0.36       1.0  T
  41     -7.5993864 -0.716694E-04  0.115E+00    0.36       1.0  T
  42     -7.5989938  0.392659E-03  0.831E-01    0.36       1.0  T
  43     -7.5979814  0.101237E-02  0.647E-01    0.35       1.0  T
  44     -7.5971000  0.881434E-03  0.530E-01    0.35       1.0  T
  45     -7.5963043  0.795691E-03  0.502E-01    0.35       1.0  T
  46     -7.5961256  0.178711E-03  0.478E-01    0.35       1.0  T
  47     -7.5975394 -0.141386E-02  0.374E-01    0.36       1.0  T
  48     -7.5984808 -0.941351E-03  0.303E-01    0.36       1.0  T
  49     -7.5989428 -0.462047E-03  0.250E-01    0.36       1.0  T
  50     -7.5991952 -0.252409E-03  0.203E-01    0.36       1.0  T
  51     -7.5992380 -0.427741E-04  0.186E-01    0.36       1.0  T
  52     -7.5992383 -0.339457E-06  0.180E-01    0.36       1.0  T
  53     -7.5992431 -0.478179E-05  0.176E-01    0.36       1.0  T
  54     -7.5993159 -0.727804E-04  0.153E-01    0.36       1.0  T
  55     -7.5994243 -0.108426E-03  0.111E-01    0.36       1.0  T
  56     -7.5994978 -0.734581E-04  0.703E-02    0.36       1.0  T
  57     -7.5995350 -0.372644E-04  0.369E-02    0.36       1.0  T
  58     -7.5995480 -0.129362E-04  0.169E-02    0.36       2.0  T
  59     -7.5995525 -0.448697E-05  0.398E-03    0.36       8.4  T
  60     -7.5995530 -0.516958E-06  0.194E-03    0.36      17.2  T
  61     -7.5995530  0.321572E-07  0.136E-03    0.36      24.5  T
  62     -7.5995530 -0.462831E-07  0.500E-04    0.36      66.7  T
  63     -7.5995530  0.703499E-09  0.942E-04    0.36      35.4  T

   *** convergence criteria satisfied after 63 iterations ***

         #    Occupation            Energy/Eh            Energy/eV
      -------------------------------------------------------------
         1        2.0000           -0.5816892             -15.8286
       ...           ...                  ...                  ...
         4        2.0000           -0.3493762              -9.5070
         5        2.0000           -0.3082250              -8.3872
         6        2.0000           -0.2876723              -7.8280
         7        2.0000           -0.2692317              -7.3262
         8        2.0000           -0.2606766              -7.0934
         9        1.8529           -0.2355763              -6.4104
        10        1.1461           -0.2322358              -6.3195 (HOMO)
        11        0.0010           -0.2190507              -5.9607 (LUMO)
        12                         -0.2086944              -5.6789
        13                         -0.1955493              -5.3212
        14                         -0.1762898              -4.7971
        15                         -0.1692963              -4.6068
       ...                                ...                  ...
        24                          0.4965725              13.5124
      -------------------------------------------------------------
                  HL-Gap            0.0131851 Eh            0.3588 eV
             Fermi-level           -0.2297677 Eh           -6.2523 eV

 SCC (total)                   0 d,  0 h,  0 min,  0.012 sec
 SCC setup                      ...        0 min,  0.000 sec (  0.619%)
 Dispersion                     ...        0 min,  0.000 sec (  0.952%)
 classical contributions        ...        0 min,  0.000 sec (  0.680%)
 integral evaluation            ...        0 min,  0.000 sec (  1.149%)
 iterations                     ...        0 min,  0.011 sec ( 91.468%)
 molecular gradient             ...        0 min,  0.001 sec (  4.249%)
 printout                       ...        0 min,  0.000 sec (  0.761%)

         :::::::::::::::::::::::::::::::::::::::::::::::::::::
         ::                     SUMMARY                     ::
         :::::::::::::::::::::::::::::::::::::::::::::::::::::
         :: total energy              -7.545357102293 Eh    ::
         :: gradient norm              0.325861404507 Eh/a0 ::
         :: HOMO-LUMO gap              0.358784848467 eV    ::
         ::.................................................::
         :: SCC energy                -7.599553000083 Eh    ::
         :: -> isotropic ES           -0.012512940553 Eh    ::
         :: -> anisotropic ES          0.008249152751 Eh    ::
         :: -> anisotropic XC         -0.008161194635 Eh    ::
         :: -> dispersion             -0.008783126207 Eh    ::
         :: repulsion energy           0.054204081993 Eh    ::
         :: add. restraining           0.000000000000 Eh    ::
         :: total charge               0.000000000000 e     ::
         :::::::::::::::::::::::::::::::::::::::::::::::::::::

      ----------------------------------------------------------- 
     |                   =====================                   |
     |                        A N C O P T                        |
     |                   =====================                   |
     |               Approximate Normal Coordinate               |
     |                Rational Function Optimizer                |
      ----------------------------------------------------------- 

          ...................................................
          :                      SETUP                      :
          :.................................................:
          :   optimization level            normal          :
          :   max. optcycles                   200          :
          :   ANC micro-cycles                  20          :
          :   degrees of freedom                21          :
          :.................................................:
          :   RF solver                   davidson          :
          :   write xtbopt.log                true          :
          :   linear?                        false          :
          :   energy convergence         0.5000000E-05 Eh   :
          :   grad. convergence          0.1000000E-02 Eh/α :
          :   maximium RF displ.         1.0000000          :
          :   Hlow (freq-cutoff)         0.1000000E-01      :
          :   Hmax (freq-cutoff)         5.0000000          :
          :   S6 in model hess.         20.0000000          :
          ...................................................

generating ANC from model Hessian ...
Using Lindh-Hessian (1995)
 Shifting diagonal of input Hessian by    1.3044282161077461E-002
 Lowest  eigenvalues of input Hessian
    0.010000    0.012754    0.012813    0.000000    0.000000    0.000000
    0.000000    0.000000    0.000000    0.013759    0.015514    0.016188
    0.021638    0.022913    0.027641    0.032525    0.043420    0.044137
 Highest eigenvalues
    0.142929    0.172393    0.250803    0.282923    0.310811    0.405806


........................................................................
.............................. CYCLE    1 ..............................
........................................................................
   1     -7.5995530 -0.759955E+01  0.801E-04    0.36       0.0  T
   2     -7.5995521  0.856114E-06  0.671E-03    0.36       5.0  T
   3     -7.5995529 -0.771211E-06  0.242E-03    0.36      13.8  T
   4     -7.5995529 -0.728290E-08  0.222E-03    0.36      15.0  T
   5     -7.5995530 -0.411673E-07  0.168E-03    0.36      19.9  T
   6     -7.5995530 -0.298086E-07  0.898E-04    0.36      37.1  T
   7     -7.5995530 -0.932209E-08  0.452E-04    0.36      73.7  T
     SCC iter.                  ...        0 min,  0.001 sec
     gradient                   ...        0 min,  0.001 sec
 * total energy  :    -7.5453571 Eh     change       -0.1401323E-08 Eh
   gradient norm :     0.3252474 Eh/α   predicted     0.0000000E+00 (-100.00%)
   displ. norm   :     0.8446900 α      lambda       -0.2651302E+00
   maximum displ.:     0.3741072 α      in ANC's #10, #17, #18, ...

........................................................................
.............................. CYCLE    2 ..............................
........................................................................
   1     -7.7365255 -0.773653E+01  0.402E+00    0.32       0.0  T
   2     -6.7847689  0.951757E+00  0.720E+00    0.63       1.0  T
   3     -7.1701798 -0.385411E+00  0.523E+00    0.46       1.0  T
   4     -5.6355668  0.153461E+01  0.994E+00    0.52       1.0  T
   5     -7.5480532 -0.191249E+01  0.361E+00    0.57       1.0  T
   6     -7.0846509  0.463402E+00  0.634E+00    0.40       1.0  T
   7     -7.0899354 -0.528449E-02  0.647E+00    0.57       1.0  T
   8     -6.7592926  0.330643E+00  0.784E+00    0.53       1.0  T
   9     -7.7666229 -0.100733E+01  0.135E+00    0.40       1.0  T
  10     -7.7621801  0.444278E-02  0.115E+00    0.40       1.0  T
  11     -7.7680741 -0.589396E-02  0.105E+00    0.26       1.0  T
  12     -7.7639144  0.415966E-02  0.948E-01    0.37       1.0  T
  13     -7.7739502 -0.100358E-01  0.654E-01    0.36       1.0  T
  14     -7.7826901 -0.873991E-02  0.746E-01    0.36       1.0  T
  15     -7.7827133 -0.231958E-04  0.743E-01    0.36       1.0  T
  16     -7.7817652  0.948073E-03  0.705E-01    0.36       1.0  T
  17     -7.7745741  0.719117E-02  0.840E-01    0.35       1.0  T
  18     -7.7682393  0.633482E-02  0.120E+00    0.35       1.0  T
  19     -7.7746561 -0.641687E-02  0.935E-01    0.36       1.0  T
  20     -7.7789119 -0.425581E-02  0.725E-01    0.37       1.0  T
  21     -7.7798791 -0.967123E-03  0.683E-01    0.37       1.0  T
  22     -7.7837155 -0.383643E-02  0.260E-01    0.38       1.0  T
  23     -7.7839362 -0.220755E-03  0.205E-01    0.38       1.0  T
  24     -7.7839836 -0.473562E-04  0.157E-01    0.38       1.0  T
  25     -7.7839440  0.396331E-04  0.159E-01    0.38       1.0  T
  26     -7.7839806 -0.366315E-04  0.141E-01    0.38       1.0  T
  27     -7.7840937 -0.113058E-03  0.611E-02    0.38       1.0  T
  28     -7.7841151 -0.214759E-04  0.187E-02    0.38       1.8  T
  29     -7.7841160 -0.854001E-06  0.432E-03    0.38       7.7  T
  30     -7.7841160 -0.954236E-08  0.274E-03    0.38      12.2  T
  31     -7.7841161 -0.609056E-07  0.135E-03    0.38      24.6  T
  32     -7.7841160  0.242215E-08  0.125E-03    0.38      26.7  T
  33     -7.7841161 -0.122378E-07  0.276E-04    0.38     120.8  T
  34     -7.7841161 -0.584659E-09  0.898E-05    0.38     371.3  T
     SCC iter.                  ...        0 min,  0.006 sec
     gradient                   ...        0 min,  0.001 sec
 * total energy  :    -7.7495256 Eh     change       -0.2041685E+00 Eh
   gradient norm :     0.2515416 Eh/α   predicted    -0.2271505E+00 (  11.26%)
   displ. norm   :     0.9012839 α      lambda       -0.2228912E+00
   maximum displ.:     0.6488547 α      in ANC's #17, #21, #12, ...

........................................................................
.............................. CYCLE    3 ..............................
........................................................................
   1     -7.9788094 -0.797881E+01  0.352E+00    0.34       0.0  T
   2     -7.6858206  0.292989E+00  0.511E+00    0.44       1.0  T
   3     -7.8590947 -0.173274E+00  0.352E+00    0.58       1.0  T
   4     -7.4310952  0.428000E+00  0.544E+00    0.46       1.0  T
   5     -7.9892829 -0.558188E+00  0.155E+00    0.54       1.0  T
   6     -7.9782295  0.110534E-01  0.173E+00    0.28       1.0  T
   7     -8.0157158 -0.374863E-01  0.850E-01    0.43       1.0  T
   8     -8.0084832  0.723259E-02  0.981E-01    0.51       1.0  T
   9     -7.9991348  0.934840E-02  0.116E+00    0.50       1.0  T
  10     -8.0211354 -0.220005E-01  0.153E-01    0.43       1.0  T
  11     -8.0201703  0.965094E-03  0.294E-01    0.42       1.0  T
  12     -8.0207188 -0.548523E-03  0.198E-01    0.42       1.0  T
  13     -8.0212049 -0.486091E-03  0.347E-02    0.43       1.0  T
  14     -8.0212151 -0.101826E-04  0.136E-02    0.43       2.5  T
  15     -8.0212129  0.221727E-05  0.196E-02    0.43       1.7  T
  16     -8.0212145 -0.166704E-05  0.121E-02    0.43       2.8  T
  17     -8.0212160 -0.143256E-05  0.143E-03    0.43      23.3  T
  18     -8.0212160 -0.130450E-07  0.510E-04    0.43      65.3  T
  19     -8.0212160 -0.209692E-08  0.249E-04    0.43     133.8  T
     SCC iter.                  ...        0 min,  0.003 sec
     gradient                   ...        0 min,  0.000 sec
 * total energy  :    -7.9258430 Eh     change       -0.1763174E+00 Eh
   gradient norm :     0.1433408 Eh/α   predicted    -0.2019742E+00 (  14.55%)
   displ. norm   :     0.7926019 α      lambda       -0.1071386E+00
   maximum displ.:     0.4655893 α      in ANC's #12, #15, #8, ...

........................................................................
.............................. CYCLE    4 ..............................
........................................................................
   1     -8.1502561 -0.815026E+01  0.355E+00    0.17       0.0  T
   2     -7.7349299  0.415326E+00  0.518E+00    0.20       1.0  T
   3     -7.6840963  0.508336E-01  0.579E+00    0.03       1.0  T
   4     -8.0055955 -0.321499E+00  0.418E+00    0.24       1.0  T
   5     -8.1525586 -0.146963E+00  0.178E+00    0.21       1.0  T
   6     -8.1064805  0.460781E-01  0.241E+00    0.06       1.0  T
   7     -8.1515367 -0.450562E-01  0.158E+00    0.14       1.0  T
   8     -8.1543158 -0.277907E-02  0.151E+00    0.14       1.0  T
   9     -8.1587988 -0.448296E-02  0.126E+00    0.11       1.0  T
  10     -8.1639032 -0.510439E-02  0.102E+00    0.10       1.0  T
  11     -8.1739877 -0.100845E-01  0.417E-01    0.11       1.0  T
  12     -8.1746283 -0.640625E-03  0.325E-01    0.11       1.0  T
  13     -8.1755865 -0.958233E-03  0.805E-02    0.12       1.0  T
  14     -8.1755800  0.647288E-05  0.746E-02    0.12       1.0  T
  15     -8.1755717  0.834308E-05  0.588E-02    0.12       1.0  T
  16     -8.1755907 -0.190126E-04  0.370E-02    0.12       1.0  T
  17     -8.1756002 -0.945812E-05  0.173E-02    0.12       1.9  T
  18     -8.1756029 -0.271998E-05  0.668E-03    0.12       5.0  T
  19     -8.1756033 -0.453505E-06  0.335E-04    0.12      99.6  T
  20     -8.1756033 -0.601661E-09  0.347E-04    0.12      96.1  T
     SCC iter.                  ...        0 min,  0.003 sec
     gradient                   ...        0 min,  0.001 sec
 * total energy  :    -7.9313073 Eh     change       -0.5464322E-02 Eh
   gradient norm :     0.4887832 Eh/α   predicted    -0.8722249E-01 (1496.22%)
   displ. norm   :     0.4512276 α      lambda       -0.1743259E+00
   maximum displ.:     0.1893777 α      in ANC's #14, #21, #12, ...

........................................................................
.............................. CYCLE    5 ..............................
........................................................................
   1     -8.1155532 -0.811555E+01  0.267E+00    0.34       0.0  T
   2     -7.7216419  0.393911E+00  0.406E+00    0.51       1.0  T
   3     -7.8190629 -0.974210E-01  0.414E+00    0.28       1.0  T
   4     -8.0074596 -0.188397E+00  0.310E+00    0.48       1.0  T
   5     -7.9992462  0.821345E-02  0.228E+00    0.15       1.0  T
   6     -8.1208012 -0.121555E+00  0.952E-01    0.30       1.0  T
   7     -8.1266791 -0.587799E-02  0.763E-01    0.30       1.0  T
   8     -8.1290054 -0.232621E-02  0.644E-01    0.30       1.0  T
   9     -8.1325784 -0.357303E-02  0.264E-01    0.30       1.0  T
  10     -8.1318669  0.711443E-03  0.287E-01    0.30       1.0  T
  11     -8.1326331 -0.766149E-03  0.197E-01    0.30       1.0  T
  12     -8.1331563 -0.523195E-03  0.504E-02    0.31       1.0  T
  13     -8.1331602 -0.386727E-05  0.421E-02    0.31       1.0  T
  14     -8.1331652 -0.503818E-05  0.144E-02    0.31       2.3  T
  15     -8.1331671 -0.189922E-05  0.736E-03    0.31       4.5  T
  16     -8.1331675 -0.440089E-06  0.207E-03    0.31      16.1  T
  17     -8.1331676 -0.369036E-07  0.733E-04    0.31      45.5  T
  18     -8.1331676 -0.946126E-08  0.126E-04    0.31     265.5  T
     SCC iter.                  ...        0 min,  0.003 sec
     gradient                   ...        0 min,  0.000 sec
 * total energy  :    -7.9824840 Eh     change       -0.5117661E-01 Eh
   gradient norm :     0.1353638 Eh/α   predicted    -0.1049098E+00 ( 105.00%)
   displ. norm   :     0.7618738 α      lambda       -0.8790273E-01
   maximum displ.:     0.6700209 α      in ANC's #12, #10, #20, ...

........................................................................
.............................. CYCLE    6 ..............................
........................................................................
   1     -8.0491921 -0.804919E+01  0.367E+00    0.34       0.0  T
   2     -7.3274075  0.721785E+00  0.615E+00    0.63       1.0  T
   3     -6.5406935  0.786714E+00  0.858E+00    0.93       1.0  T
   4     -7.1838079 -0.643114E+00  0.698E+00    0.93       1.0  T
   5     -5.4560057  0.172780E+01  0.111E+01    0.80       1.0  T
   6     -6.3123596 -0.856354E+00  0.954E+00    0.93       1.0  T
   7     -5.3389754  0.973384E+00  0.107E+01    0.78       1.0  T
   8     -7.9737443 -0.263477E+01  0.265E+00    0.52       1.0  T
   9     -8.0861146 -0.112370E+00  0.101E+00    0.36       1.0  T
  10     -8.0863102 -0.195653E-03  0.924E-01    0.39       1.0  T
  11     -8.0866120 -0.301772E-03  0.849E-01    0.38       1.0  T
  12     -8.0870409 -0.428889E-03  0.696E-01    0.39       1.0  T
  13     -8.0868301  0.210819E-03  0.549E-01    0.39       1.0  T
  14     -8.0879278 -0.109776E-02  0.264E-01    0.39       1.0  T
  15     -8.0879181  0.975165E-05  0.273E-01    0.40       1.0  T
  16     -8.0879296 -0.115442E-04  0.253E-01    0.40       1.0  T
  17     -8.0879298 -0.146147E-06  0.166E-01    0.40       1.0  T
  18     -8.0879141  0.156453E-04  0.118E-01    0.40       1.0  T
  19     -8.0879408 -0.266938E-04  0.611E-02    0.40       1.0  T
  20     -8.0879634 -0.226002E-04  0.422E-02    0.40       1.0  T
  21     -8.0879678 -0.436791E-05  0.261E-02    0.40       1.3  T
  22     -8.0879689 -0.109282E-05  0.171E-02    0.40       1.9  T
  23     -8.0879693 -0.433298E-06  0.131E-02    0.40       2.5  T
  24     -8.0879697 -0.349529E-06  0.986E-03    0.40       3.4  T
  25     -8.0879698 -0.848531E-07  0.706E-03    0.40       4.7  T
  26     -8.0879698 -0.139405E-07  0.184E-03    0.40      18.1  T
  27     -8.0879698 -0.108283E-08  0.142E-03    0.40      23.6  T
  28     -8.0879698 -0.291160E-08  0.726E-04    0.40      45.9  T
  29     -8.0879698 -0.959311E-09  0.461E-04    0.40      72.3  T
     SCC iter.                  ...        0 min,  0.005 sec
     gradient                   ...        0 min,  0.001 sec
 * total energy  :    -7.9621688 Eh     change        0.2031514E-01 Eh
   gradient norm :     0.1919899 Eh/α   predicted    -0.6946299E-01 (-441.93%)
   displ. norm   :     0.4298230 α      lambda       -0.6366941E-01
   maximum displ.:     0.2894590 α      in ANC's #16, #1, #8, ...

........................................................................
.............................. CYCLE    7 ..............................
........................................................................
   1     -8.1005764 -0.810058E+01  0.177E+00    0.56       0.0  T
   2     -8.0053073  0.952691E-01  0.254E+00    0.77       1.0  T
   3     -7.9912760  0.140313E-01  0.265E+00    0.48       1.0  T
   4     -7.9333373  0.579387E-01  0.324E+00    0.54       1.0  T
   5     -8.0888934 -0.155556E+00  0.938E-01    0.56       1.0  T
   6     -8.1008403 -0.119469E-01  0.404E-01    0.59       1.0  T
   7     -8.1028224 -0.198216E-02  0.255E-01    0.58       1.0  T
   8     -8.1023128  0.509636E-03  0.226E-01    0.59       1.0  T
   9     -8.1028919 -0.579101E-03  0.108E-01    0.60       1.0  T
  10     -8.1027701  0.121795E-03  0.145E-01    0.58       1.0  T
  11     -8.1028367 -0.666118E-04  0.111E-01    0.58       1.0  T
  12     -8.1029905 -0.153777E-03  0.270E-02    0.58       1.2  T
  13     -8.1030016 -0.110939E-04  0.400E-03    0.59       8.3  T
  14     -8.1030016 -0.633542E-07  0.266E-03    0.59      12.5  T
  15     -8.1030017 -0.756482E-07  0.103E-03    0.59      32.4  T
  16     -8.1030017 -0.127320E-07  0.207E-04    0.59     161.1  T
  17     -8.1030017  0.900702E-10  0.137E-04    0.59     243.3  T
     SCC iter.                  ...        0 min,  0.003 sec
     gradient                   ...        0 min,  0.000 sec
 * total energy  :    -7.9832721 Eh     change       -0.2110330E-01 Eh
   gradient norm :     0.1506823 Eh/α   predicted    -0.3771609E-01 (  78.72%)
   displ. norm   :     0.6557327 α      lambda       -0.6966074E-01
   maximum displ.:     0.5119150 α      in ANC's #12, #15, #21, ...

........................................................................
.............................. CYCLE    8 ..............................
........................................................................
   1     -8.1527120 -0.815271E+01  0.347E+00    0.32       0.0  T
   2     -7.8234850  0.329227E+00  0.398E+00    0.44       1.0  T
   3     -7.7321078  0.913772E-01  0.553E+00    0.44       1.0  T
   4     -7.9426674 -0.210560E+00  0.434E+00    0.37       1.0  T
   5     -7.9578900 -0.152226E-01  0.336E+00    0.29       1.0  T
   6     -8.1449035 -0.187013E+00  0.144E+00    0.33       1.0  T
   7     -8.1605409 -0.156375E-01  0.103E+00    0.31       1.0  T
   8     -8.1680749 -0.753394E-02  0.732E-01    0.31       1.0  T
   9     -8.1580332  0.100417E-01  0.884E-01    0.32       1.0  T
  10     -8.1691013 -0.110681E-01  0.521E-01    0.31       1.0  T
  11     -8.1701512 -0.104986E-02  0.430E-01    0.31       1.0  T
  12     -8.1719744 -0.182328E-02  0.176E-01    0.31       1.0  T
  13     -8.1724007 -0.426258E-03  0.448E-02    0.31       1.0  T
  14     -8.1724211 -0.204136E-04  0.153E-02    0.31       2.2  T
  15     -8.1724198  0.132203E-05  0.162E-02    0.31       2.1  T
  16     -8.1724212 -0.139644E-05  0.118E-02    0.31       2.8  T
  17     -8.1724231 -0.191927E-05  0.419E-03    0.31       8.0  T
  18     -8.1724233 -0.237463E-06  0.882E-04    0.31      37.8  T
  19     -8.1724233 -0.108776E-07  0.833E-05    0.31     400.0  T
     SCC iter.                  ...        0 min,  0.003 sec
     gradient                   ...        0 min,  0.001 sec
 * total energy  :    -8.0173755 Eh     change       -0.3410341E-01 Eh
   gradient norm :     0.0889359 Eh/α   predicted    -0.4980693E-01 (  46.05%)
   displ. norm   :     0.4009054 α      lambda       -0.2447034E-01
   maximum displ.:     0.1402009 α      in ANC's #17, #14, #3, ...

........................................................................
.............................. CYCLE    9 ..............................
........................................................................
   1     -8.1727020 -0.817270E+01  0.145E+00    0.51       0.0  T
   2     -7.9925127  0.180189E+00  0.316E+00    0.53       1.0  T
   3     -8.1706924 -0.178180E+00  0.110E+00    0.52       1.0  T
   4     -7.9360011  0.234691E+00  0.352E+00    0.52       1.0  T
   5     -8.1474949 -0.211494E+00  0.140E+00    0.50       1.0  T
   6     -8.1650321 -0.175372E-01  0.778E-01    0.50       1.0  T
   7     -8.1719356 -0.690348E-02  0.527E-01    0.51       1.0  T
   8     -8.1732429 -0.130724E-02  0.416E-01    0.50       1.0  T
   9     -8.1768618 -0.361894E-02  0.986E-02    0.51       1.0  T
  10     -8.1767583  0.103503E-03  0.115E-01    0.51       1.0  T
  11     -8.1769906 -0.232306E-03  0.243E-02    0.51       1.4  T
  12     -8.1769885  0.209399E-05  0.228E-02    0.51       1.5  T
  13     -8.1769941 -0.562280E-05  0.105E-02    0.51       3.2  T
  14     -8.1769955 -0.139715E-05  0.524E-03    0.51       6.4  T
  15     -8.1769959 -0.409470E-06  0.878E-04    0.51      38.0  T
  16     -8.1769959 -0.954911E-08  0.119E-04    0.51     279.8  T
     SCC iter.                  ...        0 min,  0.002 sec
     gradient                   ...        0 min,  0.000 sec
 * total energy  :    -8.0311981 Eh     change       -0.1382256E-01 Eh
   gradient norm :     0.0508679 Eh/α   predicted    -0.1420166E-01 (   2.74%)
   displ. norm   :     0.5176571 α      lambda       -0.1247295E-01
   maximum displ.:     0.2638115 α      in ANC's #5, #11, #10, ...

........................................................................
.............................. CYCLE   10 ..............................
........................................................................
   1     -8.1892685 -0.818927E+01  0.137E+00    0.55       0.0  T
   2     -8.0301681  0.159100E+00  0.287E+00    0.54       1.0  T
   3     -8.1535720 -0.123404E+00  0.146E+00    0.58       1.0  T
   4     -8.1362040  0.173679E-01  0.175E+00    0.50       1.0  T
   5     -8.1810017 -0.447976E-01  0.886E-01    0.55       1.0  T
   6     -8.1919882 -0.109865E-01  0.265E-01    0.55       1.0  T
   7     -8.1926156 -0.627414E-03  0.167E-01    0.55       1.0  T
   8     -8.1926633 -0.476974E-04  0.151E-01    0.55       1.0  T
   9     -8.1926122  0.510925E-04  0.901E-02    0.55       1.0  T
  10     -8.1926364 -0.242180E-04  0.709E-02    0.55       1.0  T
  11     -8.1927067 -0.702776E-04  0.221E-02    0.55       1.5  T
  12     -8.1927133 -0.657774E-05  0.916E-03    0.55       3.6  T
  13     -8.1927147 -0.138623E-05  0.163E-03    0.55      20.5  T
  14     -8.1927147 -0.985404E-08  0.511E-04    0.55      65.3  T
  15     -8.1927147 -0.822649E-09  0.289E-04    0.55     115.4  T
     SCC iter.                  ...        0 min,  0.002 sec
     gradient                   ...        0 min,  0.001 sec
 * total energy  :    -8.0354261 Eh     change       -0.4228019E-02 Eh
   gradient norm :     0.0675380 Eh/α   predicted    -0.7907652E-02 (  87.03%)
   displ. norm   :     0.6019482 α      lambda       -0.1702361E-01
   maximum displ.:     0.3131732 α      in ANC's #8, #11, #7, ...

........................................................................
.............................. CYCLE   11 ..............................
........................................................................
   1     -8.1863726 -0.818637E+01  0.218E+00    0.59       0.0  T
   2     -8.1498464  0.365263E-01  0.167E+00    0.55       1.0  T
   3     -7.9504613  0.199385E+00  0.350E+00    0.72       1.0  T
   4     -8.1489829 -0.198522E+00  0.163E+00    0.59       1.0  T
   5     -8.1438281  0.515482E-02  0.145E+00    0.59       1.0  T
   6     -8.1818874 -0.380593E-01  0.604E-01    0.58       1.0  T
   7     -8.1876749 -0.578747E-02  0.340E-01    0.58       1.0  T
   8     -8.1883393 -0.664389E-03  0.227E-01    0.57       1.0  T
   9     -8.1887010 -0.361706E-03  0.123E-01    0.57       1.0  T
  10     -8.1886073  0.936713E-04  0.102E-01    0.57       1.0  T
  11     -8.1887375 -0.130187E-03  0.453E-02    0.57       1.0  T
  12     -8.1887613 -0.238628E-04  0.169E-02    0.57       2.0  T
  13     -8.1887662 -0.484964E-05  0.246E-03    0.57      13.5  T
  14     -8.1887662 -0.825212E-08  0.113E-03    0.57      29.5  T
  15     -8.1887662  0.185862E-08  0.793E-04    0.57      42.0  T
  16     -8.1887662 -0.970142E-08  0.138E-04    0.57     241.2  T
     SCC iter.                  ...        0 min,  0.003 sec
     gradient                   ...        0 min,  0.001 sec
 * total energy  :    -8.0448742 Eh     change       -0.9448073E-02 Eh
   gradient norm :     0.0584690 Eh/α   predicted    -0.1159599E-01 (  22.73%)
   displ. norm   :     0.5889615 α      lambda       -0.1494299E-01
   maximum displ.:     0.3308671 α      in ANC's #6, #11, #1, ...

........................................................................
.............................. CYCLE   12 ..............................
........................................................................
   1     -8.2354579 -0.823546E+01  0.170E+00    0.45       0.0  T
   2     -8.1720544  0.634036E-01  0.227E+00    0.43       1.0  T
   3     -8.1844694 -0.124151E-01  0.179E+00    0.48       1.0  T
   4     -7.7499964  0.434473E+00  0.470E+00    0.36       1.0  T
   5     -8.2186392 -0.468643E+00  0.119E+00    0.44       1.0  T
   6     -8.2367618 -0.181225E-01  0.420E-01    0.45       1.0  T
   7     -8.2379156 -0.115379E-02  0.278E-01    0.46       1.0  T
   8     -8.2384081 -0.492515E-03  0.207E-01    0.45       1.0  T
   9     -8.2385871 -0.179035E-03  0.969E-02    0.46       1.0  T
  10     -8.2385672  0.198838E-04  0.942E-02    0.46       1.0  T
  11     -8.2387025 -0.135262E-03  0.330E-02    0.46       1.0  T
  12     -8.2387075 -0.503890E-05  0.286E-02    0.46       1.2  T
  13     -8.2387183 -0.107969E-04  0.127E-02    0.46       2.6  T
  14     -8.2387199 -0.156295E-05  0.794E-03    0.46       4.2  T
  15     -8.2387208 -0.959794E-06  0.201E-03    0.46      16.6  T
  16     -8.2387209 -0.507924E-07  0.558E-04    0.46      59.8  T
  17     -8.2387209 -0.377681E-08  0.229E-04    0.46     145.6  T
     SCC iter.                  ...        0 min,  0.002 sec
     gradient                   ...        0 min,  0.001 sec
 * total energy  :    -8.0413553 Eh     change        0.3518922E-02 Eh
   gradient norm :     0.1340872 Eh/α   predicted    -0.1006317E-01 (-385.97%)
   displ. norm   :     0.3773039 α      lambda       -0.2831715E-01
   maximum displ.:     0.1973003 α      in ANC's #5, #1, #11, ...

........................................................................
.............................. CYCLE   13 ..............................
........................................................................
   1     -8.1952392 -0.819524E+01  0.131E+00    0.46       0.0  T
   2     -8.1762280  0.190112E-01  0.140E+00    0.45       1.0  T
   3     -8.1322300  0.439980E-01  0.187E+00    0.47       1.0  T
   4     -8.0075574  0.124673E+00  0.320E+00    0.43       1.0  T
   5     -8.1951617 -0.187604E+00  0.295E-01    0.47       1.0  T
   6     -8.1953793 -0.217567E-03  0.202E-01    0.46       1.0  T
   7     -8.1958370 -0.457727E-03  0.135E-01    0.46       1.0  T
   8     -8.1958006  0.363388E-04  0.130E-01    0.46       1.0  T
   9     -8.1959000 -0.994019E-04  0.557E-02    0.46       1.0  T
  10     -8.1959077 -0.768101E-05  0.417E-02    0.46       1.0  T
  11     -8.1959277 -0.199507E-04  0.175E-02    0.46       1.9  T
  12     -8.1959309 -0.326614E-05  0.104E-02    0.46       3.2  T
  13     -8.1959320 -0.110400E-05  0.584E-03    0.46       5.7  T
  14     -8.1959324 -0.317742E-06  0.355E-03    0.46       9.4  T
  15     -8.1959325 -0.183127E-06  0.559E-04    0.46      59.6  T
  16     -8.1959325 -0.154343E-08  0.385E-04    0.46      86.5  T
     SCC iter.                  ...        0 min,  0.003 sec
     gradient                   ...        0 min,  0.001 sec
 * total energy  :    -8.0488467 Eh     change       -0.7491489E-02 Eh
   gradient norm :     0.0649673 Eh/α   predicted    -0.1617417E-01 ( 115.90%)
   displ. norm   :     0.4533125 α      lambda       -0.1743442E-01
   maximum displ.:     0.2158112 α      in ANC's #2, #12, #4, ...

........................................................................
.............................. CYCLE   14 ..............................
........................................................................
   1     -8.1962120 -0.819621E+01  0.206E+00    0.52       0.0  T
   2     -8.1377990  0.584131E-01  0.213E+00    0.46       1.0  T
   3     -8.0913636  0.464353E-01  0.283E+00    0.56       1.0  T
   4     -8.1635140 -0.721504E-01  0.139E+00    0.53       1.0  T
   5     -8.1877086 -0.241946E-01  0.772E-01    0.49       1.0  T
   6     -8.1964881 -0.877941E-02  0.460E-01    0.48       1.0  T
   7     -8.1981371 -0.164906E-02  0.396E-01    0.49       1.0  T
   8     -8.1989861 -0.848993E-03  0.316E-01    0.49       1.0  T
   9     -8.2006229 -0.163678E-02  0.811E-02    0.49       1.0  T
  10     -8.2007642 -0.141302E-03  0.377E-02    0.49       1.0  T
  11     -8.2007822 -0.179769E-04  0.908E-03    0.49       3.7  T
  12     -8.2007828 -0.674723E-06  0.447E-03    0.49       7.5  T
  13     -8.2007831 -0.258750E-06  0.157E-03    0.49      21.2  T
  14     -8.2007831 -0.459484E-07  0.230E-04    0.49     144.7  T
  15     -8.2007831 -0.203148E-09  0.131E-04    0.49     253.7  T
     SCC iter.                  ...        0 min,  0.002 sec
     gradient                   ...        0 min,  0.001 sec
 * total energy  :    -8.0508455 Eh     change       -0.1998773E-02 Eh
   gradient norm :     0.0675948 Eh/α   predicted    -0.1050852E-01 ( 425.75%)
   displ. norm   :     0.4565057 α      lambda       -0.1201201E-01
   maximum displ.:     0.3455087 α      in ANC's #1, #6, #11, ...

........................................................................
.............................. CYCLE   15 ..............................
........................................................................
   1     -8.2008826 -0.820088E+01  0.185E+00    0.39       0.0  T
   2     -8.1865804  0.143021E-01  0.161E+00    0.40       1.0  T
   3     -8.0904167  0.961637E-01  0.273E+00    0.40       1.0  T
   4     -8.1501409 -0.597242E-01  0.168E+00    0.42       1.0  T
   5     -8.1735122 -0.233712E-01  0.118E+00    0.41       1.0  T
   6     -8.1994832 -0.259711E-01  0.398E-01    0.40       1.0  T
   7     -8.2020842 -0.260095E-02  0.198E-01    0.42       1.0  T
   8     -8.2023748 -0.290616E-03  0.125E-01    0.41       1.0  T
   9     -8.2023491  0.257157E-04  0.611E-02    0.41       1.0  T
  10     -8.2024107 -0.616310E-04  0.412E-02    0.41       1.0  T
  11     -8.2024326 -0.218973E-04  0.134E-02    0.41       2.5  T
  12     -8.2024358 -0.315016E-05  0.190E-03    0.41      17.5  T
  13     -8.2024358  0.102991E-07  0.167E-03    0.41      20.0  T
  14     -8.2024358 -0.215161E-07  0.108E-03    0.41      30.8  T
  15     -8.2024358 -0.162067E-07  0.256E-04    0.41     130.0  T
  16     -8.2024358 -0.914797E-09  0.215E-05    0.41    1548.7  T
     SCC iter.                  ...        0 min,  0.002 sec
     gradient                   ...        0 min,  0.000 sec
 * total energy  :    -8.0585520 Eh     change       -0.7706530E-02 Eh
   gradient norm :     0.0462644 Eh/α   predicted    -0.7257639E-02 (  -5.82%)
   displ. norm   :     0.5102922 α      lambda       -0.1123600E-01
   maximum displ.:     0.2890979 α      in ANC's #3, #6, #11, ...

........................................................................
.............................. CYCLE   16 ..............................
........................................................................
   1     -8.1875037 -0.818750E+01  0.275E+00    0.55       0.0  T
   2     -7.4157133  0.771790E+00  0.682E+00    0.28       1.0  T
   3     -8.2343985 -0.818685E+00  0.194E+00    0.42       1.0  T
   4     -8.2588630 -0.244645E-01  0.107E+00    0.44       1.0  T
   5     -8.2141471  0.447159E-01  0.163E+00    0.52       1.0  T
   6     -8.2152212 -0.107412E-02  0.134E+00    0.45       1.0  T
   7     -8.2526297 -0.374085E-01  0.681E-01    0.46       1.0  T
   8     -8.2567844 -0.415471E-02  0.467E-01    0.44       1.0  T
   9     -8.2603031 -0.351869E-02  0.246E-01    0.46       1.0  T
  10     -8.2611089 -0.805836E-03  0.124E-01    0.46       1.0  T
  11     -8.2612282 -0.119247E-03  0.366E-02    0.46       1.0  T
  12     -8.2612278  0.363442E-06  0.242E-02    0.46       1.4  T
  13     -8.2612379 -0.100853E-04  0.400E-03    0.46       8.3  T
  14     -8.2612378  0.421755E-07  0.286E-03    0.46      11.7  T
  15     -8.2612380 -0.108293E-06  0.106E-03    0.46      31.4  T
  16     -8.2612380 -0.151939E-07  0.308E-04    0.46     108.4  T
  17     -8.2612380 -0.146934E-08  0.192E-04    0.46     173.2  T
     SCC iter.                  ...        0 min,  0.003 sec
     gradient                   ...        0 min,  0.001 sec
 * total energy  :    -8.0556537 Eh     change        0.2898343E-02 Eh
   gradient norm :     0.1487984 Eh/α   predicted    -0.7080915E-02 (-344.31%)
   displ. norm   :     0.3200240 α      lambda       -0.2108938E-01
   maximum displ.:     0.2118979 α      in ANC's #1, #2, #17, ...

........................................................................
.............................. CYCLE   17 ..............................
........................................................................
   1     -8.2106998 -0.821070E+01  0.164E+00    0.37       0.0  T
   2     -7.4944592  0.716241E+00  0.608E+00    0.71       1.0  T
   3     -8.1801235 -0.685664E+00  0.156E+00    0.38       1.0  T
   4     -8.1296835  0.504400E-01  0.228E+00    0.36       1.0  T
   5     -8.2155785 -0.858951E-01  0.647E-01    0.42       1.0  T
   6     -8.2217426 -0.616411E-02  0.309E-01    0.38       1.0  T
   7     -8.2212503  0.492348E-03  0.358E-01    0.42       1.0  T
   8     -8.2212153  0.349735E-04  0.305E-01    0.40       1.0  T
   9     -8.2219179 -0.702525E-03  0.203E-01    0.39       1.0  T
  10     -8.2223006 -0.382708E-03  0.115E-01    0.39       1.0  T
  11     -8.2224725 -0.171902E-03  0.419E-02    0.39       1.0  T
  12     -8.2224816 -0.910454E-05  0.945E-03    0.39       3.5  T
  13     -8.2224831 -0.153190E-05  0.335E-03    0.39      10.0  T
  14     -8.2224832 -0.928679E-07  0.149E-03    0.39      22.4  T
  15     -8.2224832 -0.346815E-08  0.265E-04    0.39     125.9  T
  16     -8.2224832 -0.207056E-09  0.131E-04    0.39     255.4  T
     SCC iter.                  ...        0 min,  0.002 sec
     gradient                   ...        0 min,  0.001 sec
 * total energy  :    -8.0663550 Eh     change       -0.1070126E-01 Eh
   gradient norm :     0.0389032 Eh/α   predicted    -0.1162462E-01 (   8.63%)
   displ. norm   :     0.5080327 α      lambda       -0.6198670E-02
   maximum displ.:     0.2925249 α      in ANC's #1, #3, #11, ...

........................................................................
.............................. CYCLE   18 ..............................
........................................................................
   1     -8.2103057 -0.821031E+01  0.209E+00    0.41       0.0  T
   2     -7.8768662  0.333439E+00  0.418E+00    0.12       1.0  T
   3     -8.1772215 -0.300355E+00  0.191E+00    0.45       1.0  T
   4     -8.1497250  0.274964E-01  0.248E+00    0.39       1.0  T
   5     -8.2121999 -0.624749E-01  0.968E-01    0.31       1.0  T
   6     -8.2191064 -0.690653E-02  0.677E-01    0.33       1.0  T
   7     -8.2188967  0.209726E-03  0.728E-01    0.35       1.0  T
   8     -8.2193213 -0.424607E-03  0.679E-01    0.35       1.0  T
   9     -8.2209123 -0.159097E-02  0.385E-01    0.35       1.0  T
  10     -8.2214065 -0.494248E-03  0.204E-01    0.35       1.0  T
  11     -8.2215827 -0.176203E-03  0.989E-02    0.35       1.0  T
  12     -8.2216138 -0.311107E-04  0.246E-02    0.35       1.4  T
  13     -8.2216165 -0.271738E-05  0.794E-03    0.35       4.2  T
  14     -8.2216168 -0.305666E-06  0.238E-03    0.35      14.0  T
  15     -8.2216169 -0.386473E-07  0.714E-04    0.35      46.7  T
  16     -8.2216169 -0.612395E-08  0.180E-04    0.35     184.7  T
     SCC iter.                  ...        0 min,  0.003 sec
     gradient                   ...        0 min,  0.001 sec
 * total energy  :    -8.0710773 Eh     change       -0.4722308E-02 Eh
   gradient norm :     0.0422269 Eh/α   predicted    -0.3899273E-02 ( -17.43%)
   displ. norm   :     0.5397703 α      lambda       -0.1196346E-01
   maximum displ.:     0.3191805 α      in ANC's #3, #4, #17, ...

........................................................................
.............................. CYCLE   19 ..............................
........................................................................
   1     -8.1988761 -0.819888E+01  0.270E+00    0.46       0.0  T
   2     -7.1713205  0.102756E+01  0.778E+00    0.69       1.0  T
   3     -8.1399400 -0.968619E+00  0.287E+00    0.14       1.0  T
   4     -8.0975962  0.423438E-01  0.299E+00    0.23       1.0  T
   5     -8.1275640 -0.299677E-01  0.256E+00    0.28       1.0  T
   6     -8.2085505 -0.809866E-01  0.161E+00    0.26       1.0  T
   7     -8.1825132  0.260373E-01  0.156E+00    0.16       1.0  T
   8     -8.2322422 -0.497290E-01  0.669E-01    0.21       1.0  T
   9     -8.2352678 -0.302563E-02  0.534E-01    0.23       1.0  T
  10     -8.2388889 -0.362108E-02  0.190E-01    0.22       1.0  T
  11     -8.2394535 -0.564633E-03  0.115E-01    0.24       1.0  T
  12     -8.2394999 -0.463913E-04  0.876E-02    0.24       1.0  T
  13     -8.2394896  0.103255E-04  0.708E-02    0.24       1.0  T
  14     -8.2395026 -0.130423E-04  0.541E-02    0.24       1.0  T
  15     -8.2395173 -0.146540E-04  0.292E-02    0.24       1.1  T
  16     -8.2395218 -0.448975E-05  0.138E-02    0.24       2.4  T
  17     -8.2395231 -0.126889E-05  0.367E-03    0.24       9.1  T
  18     -8.2395231 -0.715861E-07  0.299E-04    0.24     111.5  T
  19     -8.2395231  0.110686E-08  0.304E-04    0.24     109.8  T
     SCC iter.                  ...        0 min,  0.003 sec
     gradient                   ...        0 min,  0.001 sec
 * total energy  :    -8.0775764 Eh     change       -0.6499163E-02 Eh
   gradient norm :     0.0385549 Eh/α   predicted    -0.7724519E-02 (  18.85%)
   displ. norm   :     0.6561373 α      lambda       -0.1208990E-01
   maximum displ.:     0.4339819 α      in ANC's #3, #1, #4, ...

........................................................................
.............................. CYCLE   20 ..............................
........................................................................
   1     -8.2034974 -0.820350E+01  0.320E+00    0.46       0.0  T
   2     -6.9401174  0.126338E+01  0.822E+00    0.93       1.0  T
   3     -8.2115181 -0.127140E+01  0.231E+00    0.32       1.0  T
   4     -7.8768375  0.334681E+00  0.447E+00    0.34       1.0  T
   5     -7.9741443 -0.973068E-01  0.354E+00    0.02       1.0  T
   6     -8.1979220 -0.223778E+00  0.189E+00    0.13       1.0  T
   7     -8.2188615 -0.209394E-01  0.152E+00    0.18       1.0  T
   8     -8.2442577 -0.253962E-01  0.861E-01    0.24       1.0  T
   9     -8.2482371 -0.397948E-02  0.666E-01    0.18       1.0  T
  10     -8.2477861  0.451024E-03  0.746E-01    0.18       1.0  T
  11     -8.2518156 -0.402944E-02  0.323E-01    0.15       1.0  T
  12     -8.2519309 -0.115295E-03  0.308E-01    0.15       1.0  T
  13     -8.2526891 -0.758218E-03  0.119E-01    0.16       1.0  T
  14     -8.2528363 -0.147188E-03  0.593E-02    0.17       1.0  T
  15     -8.2528373 -0.104812E-05  0.259E-02    0.16       1.3  T
  16     -8.2528390 -0.172710E-05  0.234E-02    0.16       1.4  T
  17     -8.2528415 -0.241736E-05  0.948E-03    0.17       3.5  T
  18     -8.2528424 -0.918381E-06  0.316E-03    0.17      10.6  T
  19     -8.2528425 -0.146157E-06  0.108E-03    0.17      30.7  T
  20     -8.2528425 -0.137252E-07  0.507E-04    0.17      65.7  T
  21     -8.2528425 -0.307223E-08  0.192E-04    0.17     173.3  T
     SCC iter.                  ...        0 min,  0.003 sec
     gradient                   ...        0 min,  0.001 sec
 * total energy  :    -8.0792894 Eh     change       -0.1712948E-02 Eh
   gradient norm :     0.0657334 Eh/α   predicted    -0.8647405E-02 ( 404.83%)
   displ. norm   :     0.4626907 α      lambda       -0.1403963E-01
   maximum displ.:     0.2400157 α      in ANC's #8, #1, #3, ...
 * RMSD in coord.:     1.9847511 α      energy gain  -0.5339323E+00 Eh

generating ANC from model Hessian ...
Using Lindh-Hessian (1995)
 Shifting diagonal of input Hessian by    1.0329642699570415E-002
 Lowest  eigenvalues of input Hessian
    0.010000    0.010090    0.010185    0.010222    0.000000    0.000000
    0.000000    0.000000    0.000000    0.000000    0.010377    0.010476
    0.010855    0.011404    0.012778    0.014360    0.018511    0.029482
 Highest eigenvalues
    0.398360    0.503186    0.536527    0.697971    1.205830    1.455755


........................................................................
.............................. CYCLE   21 ..............................
........................................................................
   1     -8.2162084 -0.821621E+01  0.295E+00    0.29       0.0  T
   2     -5.2043804  0.301183E+01  0.920E+00    0.20       1.0  T
   3     -7.8769351 -0.267255E+01  0.384E+00    0.27       1.0  T
   4     -8.0530458 -0.176111E+00  0.296E+00    0.17       1.0  T
   5     -8.1400611 -0.870152E-01  0.269E+00    0.81       1.0  T
   6     -8.2501665 -0.110105E+00  0.178E+00    0.59       1.0  T
   7     -8.2363756  0.137908E-01  0.168E+00    0.54       1.0  T
   8     -8.2407906 -0.441493E-02  0.144E+00    0.54       1.0  T
   9     -8.2329923  0.779829E-02  0.114E+00    0.46       1.0  T
  10     -8.2468585 -0.138662E-01  0.103E+00    0.48       1.0  T
  11     -8.2500528 -0.319434E-02  0.818E-01    0.46       1.0  T
  12     -8.2537550 -0.370222E-02  0.658E-01    0.46       1.0  T
  13     -8.2595044 -0.574931E-02  0.385E-01    0.47       1.0  T
  14     -8.2628032 -0.329880E-02  0.103E-01    0.48       1.0  T
  15     -8.2627727  0.304508E-04  0.103E-01    0.48       1.0  T
  16     -8.2629926 -0.219859E-03  0.592E-02    0.49       1.0  T
  17     -8.2630165 -0.239305E-04  0.448E-02    0.49       1.0  T
  18     -8.2630314 -0.149349E-04  0.163E-02    0.49       2.0  T
  19     -8.2630321 -0.654736E-06  0.928E-03    0.49       3.6  T
  20     -8.2630322 -0.127932E-06  0.174E-03    0.49      19.2  T
  21     -8.2630323 -0.477881E-07  0.449E-04    0.49      74.2  T
  22     -8.2630323 -0.321403E-08  0.615E-05    0.49     541.9  T
     SCC iter.                  ...        0 min,  0.003 sec
     gradient                   ...        0 min,  0.000 sec
 * total energy  :    -8.0824950 Eh     change       -0.3205571E-02 Eh
   gradient norm :     0.0605528 Eh/α   predicted     0.0000000E+00 (-100.00%)
   displ. norm   :     0.3123475 α      lambda       -0.7695925E-02
   maximum displ.:     0.2131298 α      in ANC's #11, #9, #15, ...

........................................................................
.............................. CYCLE   22 ..............................
........................................................................
   1     -8.2573624 -0.825736E+01  0.113E+00    0.49       0.0  T
   2     -8.2491242  0.823813E-02  0.111E+00    0.41       1.0  T
   3     -8.1963943  0.527299E-01  0.201E+00    0.69       1.0  T
   4     -8.1984569 -0.206262E-02  0.137E+00    0.46       1.0  T
   5     -8.2573324 -0.588755E-01  0.186E-01    0.49       1.0  T
   6     -8.2574321 -0.996676E-04  0.150E-01    0.46       1.0  T
   7     -8.2576965 -0.264474E-03  0.916E-02    0.48       1.0  T
   8     -8.2575641  0.132463E-03  0.762E-02    0.47       1.0  T
   9     -8.2577145 -0.150388E-03  0.147E-02    0.48       2.3  T
  10     -8.2577171 -0.259947E-05  0.782E-03    0.48       4.3  T
  11     -8.2577175 -0.478082E-06  0.185E-03    0.48      18.0  T
  12     -8.2577176 -0.239275E-07  0.967E-04    0.48      34.5  T
  13     -8.2577176 -0.531793E-08  0.316E-04    0.48     105.6  T
     SCC iter.                  ...        0 min,  0.002 sec
     gradient                   ...        0 min,  0.000 sec
 * total energy  :    -8.0878825 Eh     change       -0.5387584E-02 Eh
   gradient norm :     0.0216397 Eh/α   predicted    -0.4223374E-02 ( -21.61%)
   displ. norm   :     0.3765244 α      lambda       -0.3262008E-02
   maximum displ.:     0.2125137 α      in ANC's #11, #9, #12, ...

........................................................................
.............................. CYCLE   23 ..............................
........................................................................
   1     -8.2512034 -0.825120E+01  0.142E+00    0.46       0.0  T
   2     -8.2457945  0.540893E-02  0.958E-01    0.52       1.0  T
   3     -8.0217970  0.223998E+00  0.317E+00    0.15       1.0  T
   4     -8.2212984 -0.199501E+00  0.122E+00    0.49       1.0  T
   5     -8.2506031 -0.293046E-01  0.261E-01    0.47       1.0  T
   6     -8.2501901  0.412967E-03  0.274E-01    0.48       1.0  T
   7     -8.2514853 -0.129522E-02  0.151E-01    0.47       1.0  T
   8     -8.2513182  0.167108E-03  0.113E-01    0.49       1.0  T
   9     -8.2515069 -0.188686E-03  0.269E-02    0.48       1.2  T
  10     -8.2515174 -0.104732E-04  0.145E-02    0.48       2.3  T
  11     -8.2515185 -0.115727E-05  0.643E-03    0.48       5.2  T
  12     -8.2515189 -0.355719E-06  0.399E-03    0.48       8.3  T
  13     -8.2515191 -0.226910E-06  0.354E-04    0.48      94.2  T
  14     -8.2515191 -0.134746E-09  0.211E-04    0.48     158.1  T
     SCC iter.                  ...        0 min,  0.002 sec
     gradient                   ...        0 min,  0.000 sec
 * total energy  :    -8.0899673 Eh     change       -0.2084770E-02 Eh
   gradient norm :     0.0318006 Eh/α   predicted    -0.1862229E-02 ( -10.67%)
   displ. norm   :     0.3786746 α      lambda       -0.2449728E-02
   maximum displ.:     0.2946594 α      in ANC's #11, #12, #8, ...

........................................................................
.............................. CYCLE   24 ..............................
........................................................................
   1     -8.2506761 -0.825068E+01  0.158E+00    0.51       0.0  T
   2     -8.2469756  0.370047E-02  0.112E+00    0.46       1.0  T
   3     -7.7092401  0.537736E+00  0.472E+00    0.90       1.0  T
   4     -8.2266825 -0.517442E+00  0.851E-01    0.53       1.0  T
   5     -8.2466571 -0.199745E-01  0.433E-01    0.50       1.0  T
   6     -8.2503218 -0.366476E-02  0.264E-01    0.50       1.0  T
   7     -8.2504217 -0.999180E-04  0.241E-01    0.52       1.0  T
   8     -8.2507853 -0.363529E-03  0.100E-01    0.49       1.0  T
   9     -8.2507801  0.513373E-05  0.813E-02    0.49       1.0  T
  10     -8.2508787 -0.986106E-04  0.423E-02    0.49       1.0  T
  11     -8.2508865 -0.776303E-05  0.448E-03    0.50       7.4  T
  12     -8.2508865 -0.276103E-07  0.424E-03    0.49       7.9  T
  13     -8.2508868 -0.267389E-06  0.652E-04    0.50      51.1  T
  14     -8.2508868  0.111900E-08  0.578E-04    0.50      57.7  T
     SCC iter.                  ...        0 min,  0.002 sec
     gradient                   ...        0 min,  0.001 sec
 * total energy  :    -8.0919127 Eh     change       -0.1945372E-02 Eh
   gradient norm :     0.0201309 Eh/α   predicted    -0.1400505E-02 ( -28.01%)
   displ. norm   :     0.5526166 α      lambda       -0.3305890E-02
   maximum displ.:     0.3544796 α      in ANC's #12, #11, #15, ...

........................................................................
.............................. CYCLE   25 ..............................
........................................................................
   1     -8.2462563 -0.824626E+01  0.220E+00    0.47       0.0  T
   2     -8.2353132  0.109431E-01  0.166E+00    0.60       1.0  T
   3     -7.8719434  0.363370E+00  0.399E+00    0.04       1.0  T
   4     -8.1736931 -0.301750E+00  0.198E+00    0.66       1.0  T
   5     -8.2336163 -0.599232E-01  0.104E+00    0.60       1.0  T
   6     -8.2414510 -0.783470E-02  0.528E-01    0.49       1.0  T
   7     -8.2437039 -0.225295E-02  0.570E-01    0.50       1.0  T
   8     -8.2468243 -0.312039E-02  0.429E-01    0.51       1.0  T
   9     -8.2469157 -0.913974E-04  0.233E-01    0.52       1.0  T
  10     -8.2474980 -0.582279E-03  0.379E-02    0.49       1.0  T
  11     -8.2475247 -0.267503E-04  0.379E-02    0.49       1.0  T
  12     -8.2475173  0.741068E-05  0.550E-02    0.49       1.0  T
  13     -8.2475334 -0.161012E-04  0.310E-02    0.49       1.1  T
  14     -8.2475352 -0.174713E-05  0.166E-02    0.49       2.0  T
  15     -8.2475362 -0.980649E-06  0.469E-04    0.49      71.1  T
  16     -8.2475362 -0.127674E-08  0.327E-04    0.49     102.1  T
     SCC iter.                  ...        0 min,  0.002 sec
     gradient                   ...        0 min,  0.000 sec
 * total energy  :    -8.0938381 Eh     change       -0.1925467E-02 Eh
   gradient norm :     0.0260114 Eh/α   predicted    -0.2157744E-02 (  12.06%)
   displ. norm   :     0.3621622 α      lambda       -0.3627107E-02
   maximum displ.:     0.2412701 α      in ANC's #12, #15, #8, ...

........................................................................
.............................. CYCLE   26 ..............................
........................................................................
   1     -8.2562468 -0.825625E+01  0.113E+00    0.52       0.0  T
   2     -8.0980470  0.158200E+00  0.320E+00    0.26       1.0  T
   3     -8.2609682 -0.162921E+00  0.669E-01    0.48       1.0  T
   4     -8.2536681  0.730011E-02  0.600E-01    0.40       1.0  T
   5     -8.2514188  0.224929E-02  0.634E-01    0.52       1.0  T
   6     -8.2598755 -0.845675E-02  0.278E-01    0.51       1.0  T
   7     -8.2585972  0.127827E-02  0.305E-01    0.48       1.0  T
   8     -8.2612991 -0.270190E-02  0.106E-01    0.48       1.0  T
   9     -8.2614166 -0.117469E-03  0.516E-02    0.48       1.0  T
  10     -8.2614519 -0.353400E-04  0.147E-02    0.47       2.3  T
  11     -8.2614528 -0.859851E-06  0.953E-03    0.47       3.5  T
  12     -8.2614545 -0.168470E-05  0.256E-03    0.47      13.0  T
  13     -8.2614545 -0.250040E-07  0.119E-03    0.47      28.0  T
  14     -8.2614545 -0.950014E-08  0.360E-04    0.47      92.5  T
  15     -8.2614545 -0.127440E-08  0.935E-05    0.47     356.6  T
     SCC iter.                  ...        0 min,  0.002 sec
     gradient                   ...        0 min,  0.000 sec
 * total energy  :    -8.0963995 Eh     change       -0.2561377E-02 Eh
   gradient norm :     0.0282313 Eh/α   predicted    -0.2051427E-02 ( -19.91%)
   displ. norm   :     0.6983311 α      lambda       -0.6091133E-02
   maximum displ.:     0.5218621 α      in ANC's #12, #15, #8, ...

........................................................................
.............................. CYCLE   27 ..............................
........................................................................
   1     -8.2552897 -0.825529E+01  0.244E+00    0.38       0.0  T
   2     -8.0500591  0.205231E+00  0.433E+00    0.70       1.0  T
   3     -8.1775452 -0.127486E+00  0.256E+00    0.38       1.0  T
   4     -7.9784624  0.199083E+00  0.410E+00    0.70       1.0  T
   5     -7.9658478  0.126146E-01  0.392E+00    0.77       1.0  T
   6     -8.2447455 -0.278898E+00  0.121E+00    0.48       1.0  T
   7     -8.2494378 -0.469226E-02  0.962E-01    0.45       1.0  T
   8     -8.2541948 -0.475699E-02  0.904E-01    0.47       1.0  T
   9     -8.2540004  0.194418E-03  0.727E-01    0.46       1.0  T
  10     -8.2613491 -0.734870E-02  0.192E-01    0.42       1.0  T
  11     -8.2617266 -0.377571E-03  0.206E-01    0.42       1.0  T
  12     -8.2619651 -0.238521E-03  0.836E-02    0.43       1.0  T
  13     -8.2619811 -0.159603E-04  0.804E-02    0.43       1.0  T
  14     -8.2619896 -0.846534E-05  0.267E-02    0.43       1.2  T
  15     -8.2619940 -0.442301E-05  0.121E-02    0.43       2.8  T
  16     -8.2619937  0.258774E-06  0.127E-02    0.43       2.6  T
  17     -8.2619941 -0.386721E-06  0.558E-03    0.43       6.0  T
  18     -8.2619942 -0.345165E-07  0.230E-03    0.43      14.5  T
  19     -8.2619942 -0.209339E-07  0.595E-04    0.43      56.0  T
  20     -8.2619942 -0.130946E-08  0.870E-05    0.43     383.0  T
     SCC iter.                  ...        0 min,  0.004 sec
     gradient                   ...        0 min,  0.001 sec
 * total energy  :    -8.0980412 Eh     change       -0.1641657E-02 Eh
   gradient norm :     0.0886171 Eh/α   predicted    -0.4530798E-02 ( 175.99%)
   displ. norm   :     0.2844245 α      lambda       -0.1345768E-01
   maximum displ.:     0.1960657 α      in ANC's #12, #11, #5, ...

........................................................................
.............................. CYCLE   28 ..............................
........................................................................
   1     -8.2494740 -0.824947E+01  0.135E+00    0.40       0.0  T
   2     -7.7551156  0.494358E+00  0.519E+00    1.09       1.0  T
   3     -8.2305955 -0.475480E+00  0.123E+00    0.40       1.0  T
   4     -8.2604790 -0.298835E-01  0.661E-01    0.45       1.0  T
   5     -8.2623877 -0.190864E-02  0.612E-01    0.40       1.0  T
   6     -8.2600210  0.236664E-02  0.607E-01    0.46       1.0  T
   7     -8.2640117 -0.399063E-02  0.436E-01    0.38       1.0  T
   8     -8.2674264 -0.341469E-02  0.220E-01    0.43       1.0  T
   9     -8.2674951 -0.686824E-04  0.173E-01    0.43       1.0  T
  10     -8.2674776  0.174362E-04  0.157E-01    0.43       1.0  T
  11     -8.2675152 -0.375385E-04  0.134E-01    0.43       1.0  T
  12     -8.2675272 -0.120609E-04  0.105E-01    0.43       1.0  T
  13     -8.2675978 -0.705776E-04  0.510E-02    0.43       1.0  T
  14     -8.2676127 -0.149502E-04  0.313E-02    0.43       1.1  T
  15     -8.2676221 -0.933219E-05  0.559E-03    0.43       6.0  T
  16     -8.2676221 -0.613156E-07  0.514E-03    0.43       6.5  T
  17     -8.2676224 -0.241033E-06  0.303E-04    0.42     110.1  T
  18     -8.2676224  0.551825E-10  0.235E-04    0.42     141.7  T
     SCC iter.                  ...        0 min,  0.003 sec
     gradient                   ...        0 min,  0.001 sec
 * total energy  :    -8.1041007 Eh     change       -0.6059517E-02 Eh
   gradient norm :     0.0325852 Eh/α   predicted    -0.7273182E-02 (  20.03%)
   displ. norm   :     0.5773984 α      lambda       -0.8323338E-02
   maximum displ.:     0.2486890 α      in ANC's #15, #5, #12, ...

........................................................................
.............................. CYCLE   29 ..............................
........................................................................
   1     -8.1962407 -0.819624E+01  0.345E+00    0.25       0.0  T
   2     -6.3841731  0.181207E+01  0.848E+00    0.22       1.0  T
   3     -7.9626135 -0.157844E+01  0.364E+00    0.30       1.0  T
   4     -7.8397340  0.122880E+00  0.479E+00    0.47       1.0  T
   5     -8.0885056 -0.248772E+00  0.277E+00    0.48       1.0  T
   6     -8.2621666 -0.173661E+00  0.127E+00    0.31       1.0  T
   7     -8.2665942 -0.442760E-02  0.934E-01    0.47       1.0  T
   8     -8.2743646 -0.777042E-02  0.539E-01    0.37       1.0  T
   9     -8.2738965  0.468098E-03  0.368E-01    0.38       1.0  T
  10     -8.2759838 -0.208733E-02  0.242E-01    0.38       1.0  T
  11     -8.2759255  0.582696E-04  0.217E-01    0.37       1.0  T
  12     -8.2761272 -0.201692E-03  0.145E-01    0.37       1.0  T
  13     -8.2759563  0.170934E-03  0.162E-01    0.37       1.0  T
  14     -8.2761392 -0.182913E-03  0.108E-01    0.37       1.0  T
  15     -8.2762278 -0.886094E-04  0.365E-02    0.37       1.0  T
  16     -8.2762274  0.424218E-06  0.281E-02    0.37       1.2  T
  17     -8.2762273  0.129268E-06  0.157E-02    0.37       2.1  T
  18     -8.2762300 -0.274246E-05  0.119E-02    0.37       2.8  T
  19     -8.2762299  0.732181E-07  0.116E-02    0.37       2.9  T
  20     -8.2762301 -0.150621E-06  0.714E-03    0.37       4.7  T
  21     -8.2762301 -0.392821E-07  0.285E-03    0.37      11.7  T
  22     -8.2762302 -0.237955E-07  0.286E-04    0.37     116.6  T
  23     -8.2762302 -0.743956E-09  0.189E-04    0.37     176.8  T
     SCC iter.                  ...        0 min,  0.004 sec
     gradient                   ...        0 min,  0.000 sec
 * total energy  :    -8.1069169 Eh     change       -0.2816178E-02 Eh
   gradient norm :     0.0443157 Eh/α   predicted    -0.5549115E-02 (  97.04%)
   displ. norm   :     0.5493316 α      lambda       -0.1373956E-01
   maximum displ.:     0.2812091 α      in ANC's #9, #10, #17, ...

........................................................................
.............................. CYCLE   30 ..............................
........................................................................
   1     -8.1903131 -0.819031E+01  0.283E+00    0.16       0.0  T
   2     -6.4979854  0.169233E+01  0.826E+00    0.49       1.0  T
   3     -7.7990088 -0.130102E+01  0.555E+00    0.26       1.0  T
   4     -8.1514172 -0.352408E+00  0.288E+00    0.37       1.0  T
   5     -8.2144337 -0.630164E-01  0.164E+00    0.28       1.0  T
   6     -8.2186767 -0.424301E-02  0.186E+00    0.24       1.0  T
   7     -8.2168894  0.178723E-02  0.169E+00    0.14       1.0  T
   8     -8.2565306 -0.396412E-01  0.603E-01    0.26       1.0  T
   9     -8.2588699 -0.233923E-02  0.391E-01    0.25       1.0  T
  10     -8.2590350 -0.165131E-03  0.379E-01    0.26       1.0  T
  11     -8.2598984 -0.863369E-03  0.847E-02    0.23       1.0  T
  12     -8.2599092 -0.108593E-04  0.763E-02    0.23       1.0  T
  13     -8.2599411 -0.318581E-04  0.516E-02    0.23       1.0  T
  14     -8.2599595 -0.183640E-04  0.322E-02    0.23       1.0  T
  15     -8.2599666 -0.712021E-05  0.185E-02    0.23       1.8  T
  16     -8.2599625  0.404604E-05  0.235E-02    0.23       1.4  T
  17     -8.2599647 -0.215185E-05  0.212E-02    0.23       1.6  T
  18     -8.2599683 -0.357903E-05  0.122E-02    0.23       2.7  T
  19     -8.2599684 -0.137078E-06  0.114E-02    0.23       2.9  T
  20     -8.2599695 -0.110528E-05  0.480E-03    0.23       6.9  T
  21     -8.2599696 -0.871262E-07  0.316E-03    0.23      10.6  T
  22     -8.2599696 -0.268095E-07  0.184E-03    0.23      18.1  T
  23     -8.2599696  0.110390E-07  0.193E-03    0.23      17.3  T
  24     -8.2599696  0.832770E-09  0.143E-03    0.23      23.4  T
  25     -8.2599696 -0.185125E-07  0.313E-04    0.23     106.6  T
  26     -8.2599696 -0.118338E-08  0.740E-05    0.23     450.6  T
     SCC iter.                  ...        0 min,  0.004 sec
     gradient                   ...        0 min,  0.000 sec
 * total energy  :    -8.1076301 Eh     change       -0.7132601E-03 Eh
   gradient norm :     0.0764245 Eh/α   predicted    -0.8942869E-02 (1153.80%)
   displ. norm   :     0.3396200 α      lambda       -0.1040897E-01
   maximum displ.:     0.1483753 α      in ANC's #9, #13, #1, ...

........................................................................
.............................. CYCLE   31 ..............................
........................................................................
   1     -8.2018295 -0.820183E+01  0.277E+00    0.36       0.0  T
   2     -7.4425208  0.759309E+00  0.788E+00    0.46       1.0  T
   3     -8.1779103 -0.735389E+00  0.314E+00    0.45       1.0  T
   4     -8.2327164 -0.548061E-01  0.209E+00    0.18       1.0  T
   5     -8.2782235 -0.455071E-01  0.904E-01    0.35       1.0  T
   6     -8.2608944  0.173291E-01  0.126E+00    0.23       1.0  T
   7     -8.0042325  0.256662E+00  0.434E+00    0.41       1.0  T
   8     -8.2652811 -0.261049E+00  0.105E+00    0.29       1.0  T
   9     -8.2744551 -0.917398E-02  0.883E-01    0.28       1.0  T
  10     -8.2726241  0.183098E-02  0.900E-01    0.27       1.0  T
  11     -8.2806016 -0.797749E-02  0.315E-01    0.30       1.0  T
  12     -8.2810898 -0.488133E-03  0.319E-01    0.29       1.0  T
  13     -8.2798578  0.123197E-02  0.331E-01    0.29       1.0  T
  14     -8.2798018  0.560081E-04  0.324E-01    0.29       1.0  T
  15     -8.2805415 -0.739767E-03  0.225E-01    0.29       1.0  T
  16     -8.2810339 -0.492334E-03  0.103E-01    0.28       1.0  T
  17     -8.2810277  0.617070E-05  0.100E-01    0.28       1.0  T
  18     -8.2811598 -0.132100E-03  0.236E-02    0.28       1.4  T
  19     -8.2811473  0.124605E-04  0.378E-02    0.28       1.0  T
  20     -8.2811577 -0.103556E-04  0.262E-02    0.28       1.3  T
  21     -8.2811582 -0.454512E-06  0.250E-02    0.28       1.3  T
  22     -8.2811637 -0.555082E-05  0.137E-02    0.28       2.4  T
  23     -8.2811657 -0.199063E-05  0.284E-03    0.28      11.7  T
  24     -8.2811657 -0.195708E-07  0.128E-03    0.28      26.1  T
  25     -8.2811657 -0.891915E-08  0.272E-04    0.28     122.4  T
  26     -8.2811657 -0.887322E-09  0.142E-04    0.28     234.7  T
     SCC iter.                  ...        0 min,  0.004 sec
     gradient                   ...        0 min,  0.000 sec
 * total energy  :    -8.1112246 Eh     change       -0.3594436E-02 Eh
   gradient norm :     0.0351697 Eh/α   predicted    -0.5804779E-02 (  61.49%)
   displ. norm   :     0.2896770 α      lambda       -0.4652143E-02
   maximum displ.:     0.1602512 α      in ANC's #11, #10, #1, ...

........................................................................
.............................. CYCLE   32 ..............................
........................................................................
   1     -8.2452387 -0.824524E+01  0.173E+00    0.24       0.0  T
   2     -7.4324222  0.812816E+00  0.630E+00    0.73       1.0  T
   3     -8.2162318 -0.783810E+00  0.178E+00    0.32       1.0  T
   4     -8.1666358  0.495960E-01  0.260E+00    0.36       1.0  T
   5     -8.1981282 -0.314924E-01  0.205E+00    0.36       1.0  T
   6     -8.2186579 -0.205297E-01  0.181E+00    0.20       1.0  T
   7     -8.2697870 -0.511291E-01  0.384E-01    0.33       1.0  T
   8     -8.2714409 -0.165394E-02  0.221E-01    0.30       1.0  T
   9     -8.2715733 -0.132360E-03  0.179E-01    0.32       1.0  T
  10     -8.2714482  0.125081E-03  0.179E-01    0.31       1.0  T
  11     -8.2715245 -0.763461E-04  0.147E-01    0.31       1.0  T
  12     -8.2715729 -0.483893E-04  0.126E-01    0.31       1.0  T
  13     -8.2717008 -0.127843E-03  0.743E-02    0.31       1.0  T
  14     -8.2717335 -0.326766E-04  0.544E-02    0.31       1.0  T
  15     -8.2717512 -0.177498E-04  0.395E-02    0.31       1.0  T
  16     -8.2717691 -0.178831E-04  0.754E-03    0.31       4.4  T
  17     -8.2717696 -0.497270E-06  0.497E-03    0.31       6.7  T
  18     -8.2717696 -0.565332E-07  0.376E-03    0.31       8.9  T
  19     -8.2717698 -0.141556E-06  0.750E-04    0.31      44.4  T
  20     -8.2717698  0.394644E-09  0.638E-04    0.31      52.2  T
     SCC iter.                  ...        0 min,  0.003 sec
     gradient                   ...        0 min,  0.000 sec
 * total energy  :    -8.1116316 Eh     change       -0.4070667E-03 Eh
   gradient norm :     0.0324684 Eh/α   predicted    -0.2521256E-02 ( 519.37%)
   displ. norm   :     0.2210990 α      lambda       -0.2884957E-02
   maximum displ.:     0.1037807 α      in ANC's #6, #5, #7, ...

........................................................................
.............................. CYCLE   33 ..............................
........................................................................
   1     -8.2681552 -0.826816E+01  0.990E-01    0.27       0.0  T
   2     -7.6831617  0.584993E+00  0.571E+00    0.77       1.0  T
   3     -8.2644333 -0.581272E+00  0.112E+00    0.30       1.0  T
   4     -8.2301236  0.343097E-01  0.196E+00    0.31       1.0  T
   5     -8.2316923 -0.156878E-02  0.194E+00    0.31       1.0  T
   6     -8.2453995 -0.137072E-01  0.156E+00    0.35       1.0  T
   7     -8.2309060  0.144936E-01  0.200E+00    0.23       1.0  T
   8     -8.2660553 -0.351493E-01  0.140E+00    0.30       1.0  T
   9     -8.2568052  0.925010E-02  0.152E+00    0.27       1.0  T
  10     -8.2635130 -0.670780E-02  0.123E+00    0.28       1.0  T
  11     -8.2771533 -0.136404E-01  0.540E-02    0.29       1.0  T
  12     -8.2760773  0.107607E-02  0.367E-01    0.29       1.0  T
  13     -8.2771116 -0.103431E-02  0.895E-02    0.29       1.0  T
  14     -8.2771691 -0.575776E-04  0.148E-02    0.29       2.2  T
  15     -8.2771659  0.328332E-05  0.238E-02    0.29       1.4  T
  16     -8.2771724 -0.656528E-05  0.336E-03    0.29       9.9  T
  17     -8.2771706  0.179760E-05  0.136E-02    0.29       2.4  T
  18     -8.2771724 -0.177997E-05  0.255E-03    0.29      13.1  T
  19     -8.2771723  0.873370E-07  0.396E-03    0.29       8.4  T
  20     -8.2771724 -0.119878E-06  0.191E-03    0.29      17.5  T
  21     -8.2771724 -0.851275E-08  0.169E-03    0.29      19.7  T
  22     -8.2771725 -0.257174E-07  0.813E-05    0.29     410.0  T
  23     -8.2771725  0.501661E-10  0.107E-04    0.29     310.7  T
     SCC iter.                  ...        0 min,  0.004 sec
     gradient                   ...        0 min,  0.001 sec
 * total energy  :    -8.1127839 Eh     change       -0.1152236E-02 Eh
   gradient norm :     0.0264014 Eh/α   predicted    -0.1512997E-02 (  31.31%)
   displ. norm   :     0.2444830 α      lambda       -0.2361349E-02
   maximum displ.:     0.1065323 α      in ANC's #10, #15, #11, ...

........................................................................
.............................. CYCLE   34 ..............................
........................................................................
   1     -8.2598544 -0.825985E+01  0.117E+00    0.31       0.0  T
   2     -7.9674397  0.292415E+00  0.472E+00    0.01       1.0  T
   3     -8.2284079 -0.260968E+00  0.199E+00    0.31       1.0  T
   4     -8.2686439 -0.402360E-01  0.834E-01    0.23       1.0  T
   5     -8.2692405 -0.596513E-03  0.589E-01    0.25       1.0  T
   6     -8.1173671  0.151873E+00  0.332E+00    0.31       1.0  T
   7     -8.2494468 -0.132080E+00  0.136E+00    0.31       1.0  T
   8     -8.2712003 -0.217535E-01  0.237E-01    0.29       1.0  T
   9     -8.2709016  0.298785E-03  0.427E-01    0.27       1.0  T
  10     -8.2722178 -0.131628E-02  0.224E-01    0.27       1.0  T
  11     -8.2720616  0.156191E-03  0.186E-01    0.28       1.0  T
  12     -8.2719130  0.148650E-03  0.206E-01    0.28       1.0  T
  13     -8.2716423  0.270665E-03  0.247E-01    0.28       1.0  T
  14     -8.2720681 -0.425804E-03  0.165E-01    0.28       1.0  T
  15     -8.2723296 -0.261494E-03  0.806E-02    0.28       1.0  T
  16     -8.2723675 -0.378529E-04  0.516E-02    0.28       1.0  T
  17     -8.2723756 -0.811307E-05  0.446E-02    0.28       1.0  T
  18     -8.2723888 -0.132184E-04  0.298E-02    0.28       1.1  T
  19     -8.2723988 -0.998730E-05  0.764E-03    0.28       4.4  T
  20     -8.2723991 -0.318149E-06  0.540E-03    0.28       6.2  T
  21     -8.2723994 -0.295248E-06  0.231E-03    0.28      14.4  T
  22     -8.2723995 -0.652082E-07  0.469E-04    0.28      71.1  T
  23     -8.2723995 -0.158350E-08  0.259E-04    0.28     128.9  T
     SCC iter.                  ...        0 min,  0.004 sec
     gradient                   ...        0 min,  0.001 sec
 * total energy  :    -8.1128566 Eh     change       -0.7276328E-04 Eh
   gradient norm :     0.0281546 Eh/α   predicted    -0.1251247E-02 (1619.61%)
   displ. norm   :     0.1778122 α      lambda       -0.1711646E-02
   maximum displ.:     0.1027813 α      in ANC's #2, #10, #5, ...

[...]
  11     -8.4113975 -0.443348E-07  0.757E-04    0.04      44.0  T
  12     -8.4113975 -0.102217E-08  0.128E-04    0.04     260.6  T
     SCC iter.                  ...        0 min,  0.002 sec
     gradient                   ...        0 min,  0.000 sec
 * total energy  :    -8.2734267 Eh     change       -0.1236029E-04 Eh
   gradient norm :     0.0009786 Eh/α   predicted    -0.6971935E-05 ( -43.59%)
   displ. norm   :     0.0634672 α      lambda       -0.1147137E-04
   maximum displ.:     0.0397291 α      in ANC's #4, #3, #5, ...

........................................................................
.............................. CYCLE  137 ..............................
........................................................................
   1     -8.4121286 -0.841213E+01  0.235E-01    0.04       0.0  T
   2     -8.4097301  0.239850E-02  0.727E-01    0.01       1.0  T
   3     -8.4107494 -0.101924E-02  0.582E-01    0.06       1.0  T
   4     -8.4115222 -0.772811E-03  0.362E-01    0.02       1.0  T
   5     -8.4120928 -0.570605E-03  0.105E-01    0.03       1.0  T
   6     -8.4121602 -0.673800E-04  0.411E-02    0.04       1.0  T
   7     -8.4121634 -0.318917E-05  0.249E-02    0.04       1.3  T
   8     -8.4121648 -0.138465E-05  0.426E-03    0.04       7.8  T
   9     -8.4121648 -0.898716E-07  0.117E-03    0.04      28.4  T
  10     -8.4121648 -0.110532E-08  0.637E-04    0.04      52.3  T
  11     -8.4121648 -0.819766E-09  0.698E-04    0.04      47.8  T
     SCC iter.                  ...        0 min,  0.001 sec
     gradient                   ...        0 min,  0.001 sec
 * total energy  :    -8.2734326 Eh     change       -0.5907725E-05 Eh
   gradient norm :     0.0015002 Eh/α   predicted    -0.5747064E-05 (  -2.72%)
   displ. norm   :     0.0686229 α      lambda       -0.7950221E-05
   maximum displ.:     0.0611651 α      in ANC's #3, #4, #10, ...

........................................................................
.............................. CYCLE  138 ..............................
........................................................................
   1     -8.4120379 -0.841204E+01  0.306E-01    0.04       0.0  T
   2     -8.4100537  0.198417E-02  0.670E-01    0.01       1.0  T
   3     -8.4102175 -0.163750E-03  0.670E-01    0.07       1.0  T
   4     -8.4113283 -0.111085E-02  0.367E-01    0.02       1.0  T
   5     -8.4119691 -0.640764E-03  0.134E-01    0.03       1.0  T
   6     -8.4120542 -0.851586E-04  0.670E-02    0.04       1.0  T
   7     -8.4120636 -0.931522E-05  0.378E-02    0.04       1.0  T
   8     -8.4120678 -0.426038E-05  0.685E-03    0.04       4.9  T
   9     -8.4120682 -0.355895E-06  0.162E-03    0.04      20.6  T
  10     -8.4120682 -0.568363E-08  0.964E-04    0.04      34.6  T
  11     -8.4120682  0.939609E-09  0.807E-04    0.04      41.3  T
     SCC iter.                  ...        0 min,  0.002 sec
     gradient                   ...        0 min,  0.000 sec
 * total energy  :    -8.2734391 Eh     change       -0.6511156E-05 Eh
   gradient norm :     0.0008831 Eh/α   predicted    -0.3982565E-05 ( -38.83%)
   displ. norm   :     0.0303289 α      lambda       -0.5023807E-05
   maximum displ.:     0.0164021 α      in ANC's #1, #4, #3, ...

........................................................................
.............................. CYCLE  139 ..............................
........................................................................
   1     -8.4119056 -0.841191E+01  0.955E-02    0.04       0.0  T
   2     -8.4110137  0.891925E-03  0.455E-01    0.06       1.0  T
   3     -8.4119204 -0.906701E-03  0.569E-02    0.04       1.0  T
   4     -8.4118120  0.108322E-03  0.146E-01    0.05       1.0  T
   5     -8.4118996 -0.875107E-04  0.709E-02    0.04       1.0  T
   6     -8.4119220 -0.224742E-04  0.386E-03    0.04       8.6  T
   7     -8.4119219  0.106192E-06  0.622E-03    0.04       5.4  T
   8     -8.4119221 -0.162430E-06  0.144E-03    0.04      23.1  T
   9     -8.4119221  0.108570E-08  0.143E-03    0.04      23.4  T
  10     -8.4119221 -0.561627E-08  0.885E-04    0.04      37.7  T
  11     -8.4119221 -0.952502E-09  0.686E-04    0.04      48.6  T
     SCC iter.                  ...        0 min,  0.002 sec
     gradient                   ...        0 min,  0.000 sec
 * total energy  :    -8.2734432 Eh     change       -0.4114064E-05 Eh
   gradient norm :     0.0006649 Eh/α   predicted    -0.2511584E-05 ( -38.95%)
   displ. norm   :     0.0388689 α      lambda       -0.4343544E-05
   maximum displ.:     0.0296103 α      in ANC's #1, #2, #11, ...

   *** GEOMETRY OPTIMIZATION CONVERGED AFTER 139 ITERATIONS ***

------------------------------------------------------------------------
 total energy gain   :        -0.7280861 Eh     -456.8809 kcal/mol
 total RMSD          :         5.0826204 a0        2.6896 Å
 total power (kW/mol):       -13.7524452 (step)-4208.0754 (real)
------------------------------------------------------------------------

 ANCopt (total)                0 d,  0 h,  0 min,  0.454 sec
 optimizer setup                ...        0 min,  0.000 sec (  0.010%)
 model hessian                  ...        0 min,  0.001 sec (  0.118%)
 ANC generation                 ...        0 min,  0.000 sec (  0.080%)
 coordinate transformation      ...        0 min,  0.000 sec (  0.085%)
 single point calculation       ...        0 min,  0.442 sec ( 97.273%)
 optimization log               ...        0 min,  0.003 sec (  0.756%)
 hessian update                 ...        0 min,  0.003 sec (  0.713%)
 rational function              ...        0 min,  0.002 sec (  0.473%)

================
 final structure:
================
9
 xtb: 6.5.1 (conda-forge)
Be           2.87774482251842       -0.28972757903938        0.11114566189942
B            2.39734236261092        0.22133268964304        1.75414547703732
B            1.95727760119259        0.63409294342593        3.16713714130454
B            1.58169342705955        0.38054346381445        4.67834170799806
C            1.49564349029822        1.70075604988606        4.24332275076547
H            1.32513448857504        2.75818251253583        4.26455730306136
H            3.21326376072413       -0.62188265925669       -1.11323522378113
H            1.39288606054968       -0.56475568681569        5.84777769248918
H            1.23801398648400       -1.02823173419619        6.63130748922728

 Bond Distances (Angstroems)
 ---------------------------
Be1-B2=1.7865        Be1-H7=1.3123        B2-Be1=1.7865        B2-B3=1.5364         B3-B2=1.5364         B3-B4=1.5777         
B3-C5=1.5840         B4-B3=1.5777         B4-C5=1.3927         C5-B3=1.5840         C5-B4=1.3927         C5-H6=1.0713         
H6-C5=1.0713         H7-Be1=1.3123        
 Be H  Rav=1.3123 sigma=0.0000  Rmin=1.3123  Rmax=1.3123     1
 B  Be Rav=1.7865 sigma=0.0000  Rmin=1.7865  Rmax=1.7865     1
 B  B  Rav=1.5571 sigma=0.0206  Rmin=1.5364  Rmax=1.5777     2
 C  H  Rav=1.0713 sigma=0.0000  Rmin=1.0713  Rmax=1.0713     1
 C  B  Rav=1.4883 sigma=0.0957  Rmin=1.3927  Rmax=1.5840     2

 selected bond angles (degree)
 --------------------
H7-Be1-B2=177.83               B3-B2-Be1=178.58               B4-B3-B2=154.95                C5-B3-B2=152.77                
C5-B3-B4= 52.27                C5-B4-B3= 64.10                B4-C5-B3= 63.63                H6-C5-B3=136.43                
H6-C5-B4=159.94                

 selected dihedral angles (degree)
 ---------------------------------
B3-B2-Be1-H7=111.41           B4-B3-B2-Be1= 50.43           C5-B3-B2-Be1=232.22           C5-B4-B3-B2=181.03            
B4-C5-B3-B2=179.05            H6-C5-B3-B2=359.05            H6-C5-B3-B4=180.00            H6-C5-B4-B3=179.99            

 CMA Distance (Angstroems)
 ---------------------------
R(CMA):  3.6969
           -------------------------------------------------
          |                Final Singlepoint                |
           -------------------------------------------------

          ...................................................
          :                      SETUP                      :
          :.................................................:
          :  # basis functions                  24          :
          :  # atomic orbitals                  24          :
          :  # shells                           14          :
          :  # electrons                        19          :
          :  max. iterations                   250          :
          :  Hamiltonian                  GFN2-xTB          :
          :  restarted?                      false          :
          :  GBSA solvation                  false          :
          :  PC potential                    false          :
          :  electronic temp.          300.0000000     K    :
          :  accuracy                    1.0000000          :
          :  -> integral cutoff          0.2500000E+02      :
          :  -> integral neglect         0.1000000E-07      :
          :  -> SCF convergence          0.1000000E-05 Eh   :
          :  -> wf. convergence          0.1000000E-03 e    :
          :  Broyden damping             0.4000000          :
          ...................................................

 iter      E             dE          RMSdq      gap      omega  full diag
   1     -8.4119221 -0.841192E+01  0.399E-05    0.04       0.0  T
   2     -8.4119221  0.464286E-10  0.949E-05    0.04     351.1  T
   3     -8.4119221 -0.324274E-10  0.662E-05    0.04     503.7  T

   *** convergence criteria satisfied after 3 iterations ***

         #    Occupation            Energy/Eh            Energy/eV
      -------------------------------------------------------------
         1        2.0000           -0.5156518             -14.0316
       ...           ...                  ...                  ...
         4        2.0000           -0.4082821             -11.1099
         5        2.0000           -0.3880060             -10.5582
         6        2.0000           -0.3542866              -9.6406
         7        2.0000           -0.3473904              -9.4530
         8        2.0000           -0.3269970              -8.8980
         9        2.0000           -0.3096717              -8.4266
        10        0.6815           -0.2608417              -7.0979 (HOMO)
        11        0.3185           -0.2593963              -7.0585 (LUMO)
        12                         -0.2059128              -5.6032
        13                         -0.1374844              -3.7411
        14                         -0.1123060              -3.0560
        15                         -0.0819535              -2.2301
       ...                                ...                  ...
        24                          1.0435960              28.3977
      -------------------------------------------------------------
                  HL-Gap            0.0014454 Eh            0.0393 eV
             Fermi-level           -0.2727346 Eh           -7.4215 eV

 SCC (total)                   0 d,  0 h,  0 min,  0.001 sec
 SCC setup                      ...        0 min,  0.000 sec (  2.427%)
 Dispersion                     ...        0 min,  0.000 sec (  7.431%)
 classical contributions        ...        0 min,  0.000 sec (  5.471%)
 integral evaluation            ...        0 min,  0.000 sec (  8.140%)
 iterations                     ...        0 min,  0.000 sec ( 35.157%)
 molecular gradient             ...        0 min,  0.000 sec ( 37.808%)
 printout                       ...        0 min,  0.000 sec (  2.502%)

         :::::::::::::::::::::::::::::::::::::::::::::::::::::
         ::                     SUMMARY                     ::
         :::::::::::::::::::::::::::::::::::::::::::::::::::::
         :: total energy              -8.273443240744 Eh    ::
         :: gradient norm              0.000670126520 Eh/a0 ::
         :: HOMO-LUMO gap              0.039331263897 eV    ::
         ::.................................................::
         :: SCC energy                -8.411922095213 Eh    ::
         :: -> isotropic ES            0.004395333071 Eh    ::
         :: -> anisotropic ES          0.006864809956 Eh    ::
         :: -> anisotropic XC         -0.011655705231 Eh    ::
         :: -> dispersion             -0.004250364997 Eh    ::
         :: repulsion energy           0.138484605209 Eh    ::
         :: add. restraining           0.000000000000 Eh    ::
         :: total charge              -0.000000000002 e     ::
         :::::::::::::::::::::::::::::::::::::::::::::::::::::

           -------------------------------------------------
          |                Property Printout                |
           -------------------------------------------------

    * Orbital Energies and Occupations

         #    Occupation            Energy/Eh            Energy/eV
      -------------------------------------------------------------
         1        2.0000           -0.5156518             -14.0316
         2        2.0000           -0.4728406             -12.8666
         3        2.0000           -0.4448610             -12.1053
         4        2.0000           -0.4082821             -11.1099
         5        2.0000           -0.3880060             -10.5582
         6        2.0000           -0.3542866              -9.6406
         7        2.0000           -0.3473904              -9.4530
         8        2.0000           -0.3269970              -8.8980
         9        2.0000           -0.3096717              -8.4266
        10        0.6815           -0.2608417              -7.0979 (HOMO)
        11        0.3185           -0.2593963              -7.0585 (LUMO)
        12                         -0.2059128              -5.6032
        13                         -0.1374844              -3.7411
        14                         -0.1123060              -3.0560
        15                         -0.0819535              -2.2301
        16                         -0.0241114              -0.6561
        17                          0.1315431               3.5795
        18                          0.1957274               5.3260
        19                          0.2233544               6.0778
        20                          0.2904134               7.9026
        21                          0.4415028              12.0139
       ...                                ...                  ...
        24                          1.0435960              28.3977
      -------------------------------------------------------------
                  HL-Gap            0.0014454 Eh            0.0393 eV
             Fermi-level           -0.2727346 Eh           -7.4215 eV

     #   Z          covCN         q      C6AA      α(0)
     1   4 Be       1.785     0.404    14.841     8.936
     2   5 B        1.881    -0.027    45.443    14.194
     3   5 B        2.850     0.055    20.487     7.558
     4   5 B        2.192     0.104    36.365    12.372
     5   6 C        2.732    -0.190    32.975     9.401
     6   1 H        0.926    -0.025     3.522     2.935
     7   1 H        0.882    -0.337    30.308     8.618
     8   1 H        0.499     0.050     3.552     3.222
     9   1 H        0.188    -0.035     9.166     5.526

 Mol. C6AA /au·bohr⁶  :       1503.930024
 Mol. C8AA /au·bohr⁸  :      42504.079820
 Mol. α(0) /au        :         72.761581


Wiberg/Mayer (AO) data.
largest (>0.10) Wiberg bond orders for each atom

 ---------------------------------------------------------------------------
     #   Z sym  total        # sym  WBO       # sym  WBO       # sym  WBO
 ---------------------------------------------------------------------------
     1   4 Be   1.932 --     2 B    1.012     7 H    0.880
     2   5 B    2.545 --     3 B    1.331     1 Be   1.012     4 B    0.120
     3   5 B    3.444 --     2 B    1.331     4 B    1.015     5 C    0.987
     4   5 B    3.265 --     5 C    1.790     3 B    1.015     8 H    0.273
                             2 B    0.120
     5   6 C    3.849 --     4 B    1.790     3 B    0.987     6 H    0.975
     6   1 H    0.998 --     5 C    0.975
     7   1 H    0.886 --     1 Be   0.880
     8   1 H    0.988 --     9 H    0.710     4 B    0.273
     9   1 H    0.887 --     8 H    0.710
 ---------------------------------------------------------------------------

Topologies differ in total number of bonds
Writing topology from bond orders to xtbtopo.mol

molecular dipole:
                 x           y           z       tot (Debye)
 q only:       -0.004      -0.422       0.351
   full:       -0.126      -0.234       0.667       1.826
molecular quadrupole (traceless):
                xx          xy          yy          xz          yz          zz
 q only:        2.999      -0.623      -0.095       5.952      -8.316      -2.903
  q+dip:       -4.865      -0.705      -1.557       3.629      -5.546       6.422
   full:       -0.656       0.320      -0.482       6.526      -7.232       1.138

           -------------------------------------------------
          |                Geometry Summary                 |
           -------------------------------------------------

      molecular mass/u    :       57.4877661
   center of mass at/Å    :        2.0056864       0.5518736       2.9833033
  moments of inertia/u·Å² :        0.2422658E+02   0.2076021E+03   0.2318081E+03
rotational constants/cm⁻¹ :        0.6958322E+00   0.8120165E-01   0.7272237E-01

 * 6 selected distances

     #   Z          #   Z                                           value/Å
     1   4 Be       2   5 B                                       1.7864541 (max)
     2   5 B        3   5 B                                       1.5364159
     3   5 B        4   5 B                                       1.5776852
     4   5 B        5   6 C                                       1.3926980
     5   6 C        6   1 H                                       1.0712960 (min)
     1   4 Be       7   1 H                                       1.3122533

 * 5 distinct bonds (by element types)

   Z      Z             #   av. dist./Å        max./Å        min./Å
   1 H    4 Be          1     1.3122533     1.3122533     1.3122533
   4 Be   5 B           1     1.7864541     1.7864541     1.7864541
   5 B    5 B           2     1.5570506     1.5776852     1.5364159
   1 H    6 C           1     1.0712960     1.0712960     1.0712960
   5 B    6 C           1     1.3926980     1.3926980     1.3926980


optimized geometry written to: xtbopt.xyz


           -------------------------------------------------
          | TOTAL ENERGY               -8.273443240744 Eh   |
          | GRADIENT NORM               0.000670126520 Eh/α |
Note: The following floating-point exceptions are signalling: IEEE_UNDERFLOW_FLAG
normal termination of xtb
          | HOMO-LUMO GAP               0.039331263897 eV   |
           -------------------------------------------------
########################################################################
[WARNING] Runtime exception occurred
-3- restart_readRestart: Dimension missmatch in restart file.
-2- restart_readRestart: Multiplicity missmatch in restart file.
-1- restart_readRestart: Number of electron missmatch in restart file.
########################################################################

------------------------------------------------------------------------
 * finished run on 2025/06/07 at 03:27:45.427     
------------------------------------------------------------------------
 total:
 * wall-time:     0 d,  0 h,  0 min,  0.471 sec
 *  cpu-time:     0 d,  0 h,  0 min,  6.309 sec
 * ratio c/w:    13.390 speedup
 SCF:
 * wall-time:     0 d,  0 h,  0 min,  0.012 sec
 *  cpu-time:     0 d,  0 h,  0 min,  0.153 sec
 * ratio c/w:    12.583 speedup
 ANC optimizer:
 * wall-time:     0 d,  0 h,  0 min,  0.456 sec
 *  cpu-time:     0 d,  0 h,  0 min,  6.124 sec
 * ratio c/w:    13.428 speedup

