      -----------------------------------------------------------      
     |                   =====================                   |     
     |                           x T B                           |     
     |                   =====================                   |     
     |                         S. Grimme                         |     
     |          Mulliken Center for Theoretical Chemistry        |     
     |                    University of Bonn                     |     
      -----------------------------------------------------------      

   * xtb version 6.5.1 (conda-forge) compiled by 'runner@Mac-1657629245115.local' on 2022-07-12

   xtb is free software: you can redistribute it and/or modify it under
   the terms of the GNU Lesser General Public License as published by
   the Free Software Foundation, either version 3 of the License, or
   (at your option) any later version.
   
   xtb is distributed in the hope that it will be useful,
   but WITHOUT ANY WARRANTY; without even the implied warranty of
   MERCHANTABILITY or FITNESS FOR A PARTICULAR PURPOSE.  See the
   GNU Lesser General Public License for more details.
   
   Cite this work as:
   * C. Bannwarth, E. Caldeweyher, S. Ehlert, A. Hansen, P. Pracht,
     J. Seibert, S. Spicher, S. Grimme, WIREs Comput. Mol. Sci., 2020, 11,
     e01493. DOI: 10.1002/wcms.1493
   
   for GFN2-xTB:
   * C. Bannwarth, S. Ehlert and S. Grimme., J. Chem. Theory Comput., 2019,
     15, 1652-1671. DOI: 10.1021/acs.jctc.8b01176
   for GFN1-xTB:
   * S. Grimme, C. Bannwarth, P. Shushkov, J. Chem. Theory Comput., 2017,
     13, 1989-2009. DOI: 10.1021/acs.jctc.7b00118
   for GFN0-xTB:
   * P. Pracht, E. Caldeweyher, S. Ehlert, S. Grimme, ChemRxiv, 2019, preprint.
     DOI: 10.26434/chemrxiv.8326202.v1
   for GFN-FF:
   * S. Spicher and S. Grimme, Angew. Chem. Int. Ed., 2020, 59, 15665-15673.
     DOI: 10.1002/anie.202004239
   
   for ALPB and GBSA implicit solvation:
   * S. Ehlert, M. Stahn, S. Spicher, S. Grimme, J. Chem. Theory Comput.,
     2021, 17, 4250-4261. DOI: 10.1021/acs.jctc.1c00471
   
   for DFT-D4:
   * E. Caldeweyher, C. Bannwarth and S. Grimme, J. Chem. Phys., 2017,
     147, 034112. DOI: 10.1063/1.4993215
   * E. Caldeweyher, S. Ehlert, A. Hansen, H. Neugebauer, S. Spicher,
     C. Bannwarth and S. Grimme, J. Chem. Phys., 2019, 150, 154122.
     DOI: 10.1063/1.5090222
   * E. Caldeweyher, J.-M. Mewes, S. Ehlert and S. Grimme, Phys. Chem. Chem. Phys.
     2020, 22, 8499-8512. DOI: 10.1039/D0CP00502A
   
   for sTDA-xTB:
   * S. Grimme and C. Bannwarth, J. Chem. Phys., 2016, 145, 054103.
     DOI: 10.1063/1.4959605
   
   in the mass-spec context:
   * V. Asgeirsson, C. Bauer and S. Grimme, Chem. Sci., 2017, 8, 4879.
     DOI: 10.1039/c7sc00601b
   * J. Koopman and S. Grimme, ACS Omega 2019, 4, 12, 15120-15133.
     DOI: 10.1021/acsomega.9b02011
   
   for metadynamics refer to:
   * S. Grimme, J. Chem. Theory Comput., 2019, 155, 2847-2862
     DOI: 10.1021/acs.jctc.9b00143
   
   for SPH calculations refer to:
   * S. Spicher and S. Grimme, J. Chem. Theory Comput., 2021, 17, 1701-1714
     DOI: 10.1021/acs.jctc.0c01306
   
   with help from (in alphabetical order)
   P. Atkinson, C. Bannwarth, F. Bohle, G. Brandenburg, E. Caldeweyher
   M. Checinski, S. Dohm, S. Ehlert, S. Ehrlich, I. Gerasimov, C. Hölzer
   A. Katbashev, J. Koopman, C. Lavigne, S. Lehtola, F. März, M. Müller,
   F. Musil, H. Neugebauer, J. Pisarek, C. Plett, P. Pracht, F. Pultar,
   J. Seibert, P. Shushkov, S. Spicher, M. Stahn, M. Steiner, T. Strunk,
   J. Stückrath, T. Rose, and J. Unsleber
   
 * started run on 2025/06/07 at 03:27:44.544     

           -------------------------------------------------
          |                Calculation Setup                |
           -------------------------------------------------

          program call               : xtb B3BeC3H5.xyz --gfn 2 --opt
          coordinate file            : B3BeC3H5.xyz
          omp threads                :                    16

   ID    Z sym.   atoms
    1    4 Be     1
    2    5 B      2-4
    3    6 C      5-7
    4    1 H      8-12

molecular fragmentation (1/2 indicates fragments):
122222222222
# atoms in fragment 1/2:     1    11
 fragment masses (1/2) :        9.01       73.50
CMA distance (Bohr)    :   7.240
constraining FC (au)   :  0.0500

           -------------------------------------------------
          |                 G F N 2 - x T B                 |
           -------------------------------------------------

        Reference                      10.1021/acs.jctc.8b01176
      * Hamiltonian:
        H0-scaling (s, p, d)           1.850000    2.230000    2.230000
        zeta-weighting                 0.500000
      * Dispersion:
        s8                             2.700000
        a1                             0.520000
        a2                             5.000000
        s9                             5.000000
      * Repulsion:
        kExp                           1.500000    1.000000
        rExp                           1.000000
      * Coulomb:
        alpha                          2.000000
        third order                    shell-resolved
        anisotropic                    true
        a3                             3.000000
        a5                             4.000000
        cn-shift                       1.200000
        cn-exp                         4.000000
        max-rad                        5.000000


          ...................................................
          :                      SETUP                      :
          :.................................................:
          :  # basis functions                  33          :
          :  # atomic orbitals                  33          :
          :  # shells                           19          :
          :  # electrons                        28          :
          :  max. iterations                   250          :
          :  Hamiltonian                  GFN2-xTB          :
          :  restarted?                      false          :
          :  GBSA solvation                  false          :
          :  PC potential                    false          :
          :  electronic temp.          300.0000000     K    :
          :  accuracy                    1.0000000          :
          :  -> integral cutoff          0.2500000E+02      :
          :  -> integral neglect         0.1000000E-07      :
          :  -> SCF convergence          0.1000000E-05 Eh   :
          :  -> wf. convergence          0.1000000E-03 e    :
          :  Broyden damping             0.4000000          :
          ...................................................

 iter      E             dE          RMSdq      gap      omega  full diag
   1     10.1713983  0.101714E+02  0.213E+01    0.61       0.0  T
   2      6.3064031 -0.386500E+01  0.279E+01    1.29       1.0  T
   3      0.7259749 -0.558043E+01  0.192E+01    1.03       1.0  T
   4     -0.9460350 -0.167201E+01  0.198E+01    0.55       1.0  T
   5     -6.9919769 -0.604594E+01  0.145E+01    0.47       1.0  T
   6     -8.4292497 -0.143727E+01  0.116E+01    0.17       1.0  T
   7     -9.8779700 -0.144872E+01  0.108E+01    0.32       1.0  T
   8     -9.5064111  0.371559E+00  0.101E+01    0.25       1.0  T
   9    -10.2589221 -0.752511E+00  0.860E+00    0.11       1.0  T
  10     -9.9235692  0.335353E+00  0.875E+00    0.30       1.0  T
  11      1.4687314  0.113923E+02  0.156E+01    0.21       1.0  T
  12    -11.8918746 -0.133606E+02  0.564E+00    0.26       1.0  T
  13    -11.9935132 -0.101639E+00  0.508E+00    0.14       1.0  T
  14    -11.9720229  0.214903E-01  0.524E+00    0.11       1.0  T
  15    -11.9888847 -0.168618E-01  0.470E+00    0.29       1.0  T
  16     -1.5136742  0.104752E+02  0.142E+01    0.27       1.0  T
  17    -11.5130714 -0.999940E+01  0.630E+00    0.07       1.0  T
  18     -5.6928002  0.582027E+01  0.111E+01    0.23       1.0  T
  19     -4.3158324  0.137697E+01  0.121E+01    0.22       1.0  T
  20     -6.2373398 -0.192151E+01  0.109E+01    0.24       1.0  T
  21     -9.0741529 -0.283681E+01  0.860E+00    0.23       1.0  T
  22     -7.4267384  0.164741E+01  0.951E+00    0.23       1.0  T
  23     -6.4220070  0.100473E+01  0.104E+01    0.23       1.0  T
  24     -5.5597378  0.862269E+00  0.112E+01    0.24       1.0  T
  25     -1.9225784  0.363716E+01  0.146E+01    0.24       1.0  T
  26     -6.9756115 -0.505303E+01  0.964E+00    0.23       1.0  T
  27     -7.7117574 -0.736146E+00  0.897E+00    0.22       1.0  T
  28     -9.6819794 -0.197022E+01  0.752E+00    0.20       1.0  T
  29     -9.5505448  0.131435E+00  0.758E+00    0.20       1.0  T
  30     -9.7722305 -0.221686E+00  0.744E+00    0.20       1.0  T
  31     -9.8069563 -0.347258E-01  0.734E+00    0.19       1.0  T
  32    -10.5238019 -0.716846E+00  0.673E+00    0.18       1.0  T
  33    -10.3838806  0.139921E+00  0.680E+00    0.19       1.0  T
  34    -10.3606443  0.232363E-01  0.680E+00    0.19       1.0  T
  35    -11.3368090 -0.976165E+00  0.570E+00    0.13       1.0  T
  36    -10.6157575  0.721052E+00  0.595E+00    0.19       1.0  T
  37    -11.0804048 -0.464647E+00  0.561E+00    0.19       1.0  T
  38    -11.0010136  0.793912E-01  0.555E+00    0.19       1.0  T
  39    -11.0952873 -0.942737E-01  0.546E+00    0.19       1.0  T
  40    -11.2082752 -0.112988E+00  0.530E+00    0.18       1.0  T
  41    -11.3758203 -0.167545E+00  0.505E+00    0.16       1.0  T
  42    -11.4747868 -0.989665E-01  0.486E+00    0.15       1.0  T
  43    -11.4709552  0.383161E-02  0.485E+00    0.15       1.0  T
  44    -11.5033212 -0.323661E-01  0.477E+00    0.15       1.0  T
  45    -11.6129223 -0.109601E+00  0.514E+00    0.13       1.0  T
  46    -11.5750122  0.379101E-01  0.548E+00    0.14       1.0  T
  47    -11.5523095  0.227027E-01  0.552E+00    0.15       1.0  T
  48    -11.5406624  0.116471E-01  0.542E+00    0.15       1.0  T
  49    -11.5831114 -0.424490E-01  0.516E+00    0.14       1.0  T
  50    -11.8526015 -0.269490E+00  0.483E+00    0.08       1.0  T
  51    -11.8714221 -0.188206E-01  0.480E+00    0.07       1.0  T
  52    -11.8800533 -0.863122E-02  0.480E+00    0.07       1.0  T
  53    -11.8515632  0.284901E-01  0.463E+00    0.08       1.0  T
  54    -11.8367929  0.147703E-01  0.446E+00    0.09       1.0  T
  55    -11.8167563  0.200366E-01  0.435E+00    0.10       1.0  T
  56    -11.9039964 -0.872400E-01  0.465E+00    0.09       1.0  T
  57    -11.7848646  0.119132E+00  0.441E+00    0.12       1.0  T
  58    -11.8100031 -0.251385E-01  0.458E+00    0.11       1.0  T
  59    -11.7905961  0.194069E-01  0.477E+00    0.12       1.0  T
  60    -11.8669582 -0.763621E-01  0.447E+00    0.09       1.0  T
  61    -11.9325307 -0.655725E-01  0.415E+00    0.08       1.0  T
  62    -12.0076948 -0.751642E-01  0.381E+00    0.06       1.0  T
  63    -12.0064183  0.127655E-02  0.380E+00    0.06       1.0  T
  64    -11.9115833  0.948350E-01  0.347E+00    0.08       1.0  T
  65    -11.9271811 -0.155978E-01  0.400E+00    0.08       1.0  T
  66    -11.9271345  0.466020E-04  0.412E+00    0.09       1.0  T
  67    -11.9200710  0.706345E-02  0.426E+00    0.10       1.0  T
  68    -11.9185039  0.156714E-02  0.417E+00    0.09       1.0  T
  69    -11.9211813 -0.267744E-02  0.388E+00    0.09       1.0  T
  70    -11.8558120  0.653694E-01  0.328E+00    0.09       1.0  T
  71    -11.7424686  0.113343E+00  0.352E+00    0.09       1.0  T
  72    -11.7463764 -0.390786E-02  0.354E+00    0.09       1.0  T
  73    -11.7518143 -0.543787E-02  0.348E+00    0.09       1.0  T
  74    -12.0226574 -0.270843E+00  0.261E+00    0.08       1.0  T
  75    -12.0265861 -0.392876E-02  0.187E+00    0.08       1.0  T
  76    -12.0672265 -0.406404E-01  0.168E+00    0.09       1.0  T
  77    -11.9473248  0.119902E+00  0.272E+00    0.07       1.0  T
  78    -11.9603188 -0.129941E-01  0.258E+00    0.07       1.0  T
  79    -11.8671059  0.932129E-01  0.358E+00    0.06       1.0  T
  80    -11.9155090 -0.484031E-01  0.322E+00    0.06       1.0  T
  81    -11.8645789  0.509301E-01  0.358E+00    0.06       1.0  T
  82    -11.9933393 -0.128760E+00  0.264E+00    0.06       1.0  T
  83    -12.0432579 -0.499185E-01  0.210E+00    0.07       1.0  T
  84    -12.0996464 -0.563885E-01  0.138E+00    0.08       1.0  T
  85    -12.1009987 -0.135227E-02  0.161E+00    0.08       1.0  T
  86    -12.1213776 -0.203790E-01  0.155E+00    0.09       1.0  T
  87    -12.1263951 -0.501743E-02  0.148E+00    0.09       1.0  T
  88    -12.1244811  0.191394E-02  0.148E+00    0.09       1.0  T
  89    -12.1303246 -0.584349E-02  0.153E+00    0.10       1.0  T
  90    -12.1394339 -0.910932E-02  0.136E+00    0.10       1.0  T
  91    -12.1408810 -0.144709E-02  0.128E+00    0.11       1.0  T
  92    -12.1463836 -0.550260E-02  0.940E-01    0.12       1.0  T
  93    -12.1466531 -0.269495E-03  0.969E-01    0.13       1.0  T
  94    -12.1459825  0.670613E-03  0.101E+00    0.13       1.0  T
  95    -12.1456851  0.297409E-03  0.974E-01    0.14       1.0  T
  96    -12.1445578  0.112729E-02  0.832E-01    0.14       1.0  T
  97    -12.1437864  0.771425E-03  0.701E-01    0.14       1.0  T
  98    -12.1441217 -0.335339E-03  0.626E-01    0.14       1.0  T
  99    -12.1454556 -0.133390E-02  0.573E-01    0.14       1.0  T
 100    -12.1463841 -0.928479E-03  0.551E-01    0.13       1.0  T
 101    -12.1473946 -0.101049E-02  0.550E-01    0.12       1.0  T
 102    -12.1474727 -0.781566E-04  0.531E-01    0.12       1.0  T
 103    -12.1475995 -0.126786E-03  0.414E-01    0.11       1.0  T
 104    -12.1473841  0.215447E-03  0.423E-01    0.11       1.0  T
 105    -12.1476963 -0.312218E-03  0.320E-01    0.12       1.0  T
 106    -12.1477385 -0.422226E-04  0.258E-01    0.12       1.0  T
 107    -12.1477551 -0.165583E-04  0.168E-01    0.12       1.0  T
 108    -12.1477789 -0.238546E-04  0.107E-01    0.11       1.0  T
 109    -12.1477810 -0.206223E-05  0.696E-02    0.11       1.0  T
 110    -12.1477829 -0.193263E-05  0.510E-02    0.11       1.0  T
 111    -12.1477722  0.107085E-04  0.365E-02    0.11       1.0  T
 112    -12.1477789 -0.662595E-05  0.276E-02    0.11       1.0  T
 113    -12.1477838 -0.493157E-05  0.132E-02    0.11       2.2  T
 114    -12.1477848 -0.976109E-06  0.108E-02    0.11       2.7  T
 115    -12.1477841  0.643655E-06  0.117E-02    0.11       2.5  T
 116    -12.1477847 -0.549860E-06  0.905E-03    0.11       3.2  T
 117    -12.1477844  0.223908E-06  0.743E-03    0.11       3.9  T
 118    -12.1477846 -0.178321E-06  0.695E-03    0.11       4.2  T
 119    -12.1477849 -0.300079E-06  0.565E-03    0.11       5.1  T
 120    -12.1477849  0.614868E-07  0.517E-03    0.11       5.6  T
 121    -12.1477849 -0.531979E-08  0.453E-03    0.11       6.4  T
 122    -12.1477850 -0.129568E-06  0.267E-03    0.11      10.8  T
 123    -12.1477850 -0.186335E-07  0.137E-03    0.11      21.1  T
 124    -12.1477850 -0.429905E-08  0.580E-04    0.11      49.8  T
 125    -12.1477850 -0.565381E-09  0.257E-04    0.11     112.1  T

   *** convergence criteria satisfied after 125 iterations ***

         #    Occupation            Energy/Eh            Energy/eV
      -------------------------------------------------------------
         1        2.0000           -0.5793874             -15.7659
       ...           ...                  ...                  ...
         8        2.0000           -0.3457681              -9.4088
         9        2.0000           -0.3333759              -9.0716
        10        2.0000           -0.3230936              -8.7918
        11        2.0000           -0.3180803              -8.6554
        12        2.0000           -0.2974775              -8.0948
        13        2.0000           -0.2936133              -7.9896
        14        1.7961           -0.2843782              -7.7383 (HOMO)
        15        0.2040           -0.2802447              -7.6258 (LUMO)
        16                         -0.2601911              -7.0802
        17                         -0.2494518              -6.7879
        18                         -0.2361429              -6.4258
        19                         -0.2342805              -6.3751
       ...                                ...                  ...
        33                          0.6473560              17.6155
      -------------------------------------------------------------
                  HL-Gap            0.0041335 Eh            0.1125 eV
             Fermi-level           -0.2823114 Eh           -7.6821 eV

 SCC (total)                   0 d,  0 h,  0 min,  0.043 sec
 SCC setup                      ...        0 min,  0.000 sec (  0.149%)
 Dispersion                     ...        0 min,  0.000 sec (  0.215%)
 classical contributions        ...        0 min,  0.000 sec (  0.192%)
 integral evaluation            ...        0 min,  0.000 sec (  0.364%)
 iterations                     ...        0 min,  0.042 sec ( 97.585%)
 molecular gradient             ...        0 min,  0.001 sec (  1.307%)
 printout                       ...        0 min,  0.000 sec (  0.156%)

         :::::::::::::::::::::::::::::::::::::::::::::::::::::
         ::                     SUMMARY                     ::
         :::::::::::::::::::::::::::::::::::::::::::::::::::::
         :: total energy             -12.076752173921 Eh    ::
         :: gradient norm              0.320662032269 Eh/a0 ::
         :: HOMO-LUMO gap              0.112479298409 eV    ::
         ::.................................................::
         :: SCC energy               -12.147785019916 Eh    ::
         :: -> isotropic ES           -0.058846388677 Eh    ::
         :: -> anisotropic ES          0.011060384084 Eh    ::
         :: -> anisotropic XC         -0.016336025523 Eh    ::
         :: -> dispersion             -0.013033426377 Eh    ::
         :: repulsion energy           0.071083387347 Eh    ::
         :: add. restraining           0.000000000000 Eh    ::
         :: total charge               0.000000000000 e     ::
         :::::::::::::::::::::::::::::::::::::::::::::::::::::

      ----------------------------------------------------------- 
     |                   =====================                   |
     |                        A N C O P T                        |
     |                   =====================                   |
     |               Approximate Normal Coordinate               |
     |                Rational Function Optimizer                |
      ----------------------------------------------------------- 

          ...................................................
          :                      SETUP                      :
          :.................................................:
          :   optimization level            normal          :
          :   max. optcycles                   200          :
          :   ANC micro-cycles                  20          :
          :   degrees of freedom                30          :
          :.................................................:
          :   RF solver                   davidson          :
          :   write xtbopt.log                true          :
          :   linear?                        false          :
          :   energy convergence         0.5000000E-05 Eh   :
          :   grad. convergence          0.1000000E-02 Eh/α :
          :   maximium RF displ.         1.0000000          :
          :   Hlow (freq-cutoff)         0.1000000E-01      :
          :   Hmax (freq-cutoff)         5.0000000          :
          :   S6 in model hess.         20.0000000          :
          ...................................................

generating ANC from model Hessian ...
Using Lindh-Hessian (1995)
 Shifting diagonal of input Hessian by    2.2056652170751371E-002
 Lowest  eigenvalues of input Hessian
    0.010000    0.018902    0.019867    0.021640    0.021839    0.021927
    0.000000    0.000000    0.000000    0.000000    0.000000    0.000000
    0.022785    0.023541    0.024263    0.025312    0.025720    0.031192
 Highest eigenvalues
    0.226843    0.245078    0.280013    0.305802    0.357458    0.387621


........................................................................
.............................. CYCLE    1 ..............................
........................................................................
   1    -12.1477850 -0.121478E+02  0.275E-04    0.11       0.0  T
   2    -12.1477848  0.175776E-06  0.259E-03    0.11      11.1  T
   3    -12.1477850 -0.171905E-06  0.551E-04    0.11      52.4  T
   4    -12.1477850 -0.642805E-09  0.427E-04    0.11      67.7  T
     SCC iter.                  ...        0 min,  0.001 sec
     gradient                   ...        0 min,  0.000 sec
 * total energy  :   -12.0767522 Eh     change        0.4239697E-08 Eh
   gradient norm :     0.3206059 Eh/α   predicted     0.0000000E+00 (-100.00%)
   displ. norm   :     0.7851353 α      lambda       -0.2429704E+00
   maximum displ.:     0.3430549 α      in ANC's #23, #18, #27, ...

........................................................................
.............................. CYCLE    2 ..............................
........................................................................
   1    -12.2842895 -0.122843E+02  0.252E+00    0.30       0.0  T
   2    -11.0362866  0.124800E+01  0.746E+00    0.30       1.0  T
   3    -12.2752452 -0.123896E+01  0.209E+00    0.46       1.0  T
   4    -11.3568378  0.918407E+00  0.619E+00    0.11       1.0  T
   5    -12.2424634 -0.885626E+00  0.210E+00    0.29       1.0  T
   6    -11.7479236  0.494540E+00  0.509E+00    0.18       1.0  T
   7    -12.3114034 -0.563480E+00  0.142E+00    0.13       1.0  T
   8    -12.2776216  0.337819E-01  0.178E+00    0.24       1.0  T
   9    -12.3149735 -0.373520E-01  0.127E+00    0.28       1.0  T
  10    -12.3358692 -0.208957E-01  0.715E-01    0.22       1.0  T
  11    -12.3347671  0.110209E-02  0.714E-01    0.22       1.0  T
  12    -12.3367202 -0.195309E-02  0.623E-01    0.24       1.0  T
  13    -12.3353353  0.138483E-02  0.601E-01    0.23       1.0  T
  14    -12.3392424 -0.390709E-02  0.450E-01    0.22       1.0  T
  15    -12.3408965 -0.165409E-02  0.335E-01    0.21       1.0  T
  16    -12.3411608 -0.264269E-03  0.291E-01    0.20       1.0  T
  17    -12.3414497 -0.288949E-03  0.257E-01    0.20       1.0  T
  18    -12.3420574 -0.607619E-03  0.167E-01    0.19       1.0  T
  19    -12.3420841 -0.267054E-04  0.153E-01    0.19       1.0  T
  20    -12.3421616 -0.775237E-04  0.125E-01    0.18       1.0  T
  21    -12.3421836 -0.220298E-04  0.111E-01    0.18       1.0  T
  22    -12.3422194 -0.357551E-04  0.519E-02    0.18       1.0  T
  23    -12.3422098  0.960953E-05  0.566E-02    0.18       1.0  T
  24    -12.3422089  0.900599E-06  0.540E-02    0.18       1.0  T
  25    -12.3422215 -0.126235E-04  0.397E-02    0.18       1.0  T
  26    -12.3422333 -0.118600E-04  0.261E-02    0.18       1.1  T
  27    -12.3422418 -0.849842E-05  0.715E-03    0.18       4.0  T
  28    -12.3422425 -0.682183E-06  0.232E-03    0.18      12.5  T
  29    -12.3422426 -0.584403E-07  0.633E-04    0.18      45.6  T
  30    -12.3422426 -0.353793E-08  0.320E-04    0.18      90.1  T
     SCC iter.                  ...        0 min,  0.007 sec
     gradient                   ...        0 min,  0.001 sec
 * total energy  :   -12.2857786 Eh     change       -0.2090264E+00 Eh
   gradient norm :     0.2834249 Eh/α   predicted    -0.1963733E+00 (  -6.05%)
   displ. norm   :     0.9493304 α      lambda       -0.2663253E+00
   maximum displ.:     0.4371404 α      in ANC's #27, #22, #18, ...

........................................................................
.............................. CYCLE    3 ..............................
........................................................................
   1    -12.4979320 -0.124979E+02  0.383E+00    0.33       0.0  T
   2    -11.5437300  0.954202E+00  0.721E+00    1.17       1.0  T
   3    -12.5349073 -0.991177E+00  0.247E+00    0.47       1.0  T
   4    -12.1699351  0.364972E+00  0.457E+00    0.32       1.0  T
   5    -12.4975946 -0.327659E+00  0.278E+00    0.58       1.0  T
   6    -12.6131876 -0.115593E+00  0.143E+00    0.43       1.0  T
   7    -12.6115492  0.163847E-02  0.158E+00    0.51       1.0  T
   8    -12.6352599 -0.237107E-01  0.690E-01    0.51       1.0  T
   9    -12.6167404  0.185194E-01  0.117E+00    0.33       1.0  T
  10    -12.6386745 -0.219341E-01  0.561E-01    0.41       1.0  T
  11    -12.6401523 -0.147782E-02  0.331E-01    0.41       1.0  T
  12    -12.6405413 -0.388945E-03  0.252E-01    0.41       1.0  T
  13    -12.6399474  0.593827E-03  0.296E-01    0.45       1.0  T
  14    -12.6400730 -0.125518E-03  0.209E-01    0.44       1.0  T
  15    -12.6407592 -0.686235E-03  0.810E-02    0.43       1.0  T
  16    -12.6408371 -0.778876E-04  0.539E-02    0.43       1.0  T
  17    -12.6408739 -0.368301E-04  0.179E-02    0.43       1.6  T
  18    -12.6408771 -0.320428E-05  0.138E-02    0.43       2.1  T
  19    -12.6408805 -0.338715E-05  0.555E-03    0.42       5.2  T
  20    -12.6408808 -0.336364E-06  0.598E-04    0.42      48.3  T
  21    -12.6408808 -0.120487E-08  0.312E-04    0.42      92.6  T
     SCC iter.                  ...        0 min,  0.005 sec
     gradient                   ...        0 min,  0.001 sec
 * total energy  :   -12.5068205 Eh     change       -0.2210419E+00 Eh
   gradient norm :     0.1723725 Eh/α   predicted    -0.2531726E+00 (  14.54%)
   displ. norm   :     0.8326842 α      lambda       -0.1365602E+00
   maximum displ.:     0.4632785 α      in ANC's #18, #30, #27, ...

........................................................................
.............................. CYCLE    4 ..............................
........................................................................
   1    -12.7561576 -0.127562E+02  0.352E+00    0.65       0.0  T
   2    -12.2251357  0.531022E+00  0.607E+00    1.48       1.0  T
   3    -12.6836857 -0.458550E+00  0.244E+00    0.94       1.0  T
   4    -12.5001595  0.183526E+00  0.402E+00    0.74       1.0  T
   5    -12.7069636 -0.206804E+00  0.260E+00    0.86       1.0  T
   6    -12.8536055 -0.146642E+00  0.102E+00    0.90       1.0  T
   7    -12.8601185 -0.651300E-02  0.686E-01    0.91       1.0  T
   8    -12.8636853 -0.356682E-02  0.338E-01    0.97       1.0  T
   9    -12.8653713 -0.168602E-02  0.230E-01    0.88       1.0  T
  10    -12.8657199 -0.348540E-03  0.179E-01    0.89       1.0  T
  11    -12.8662721 -0.552208E-03  0.124E-01    0.90       1.0  T
  12    -12.8666179 -0.345803E-03  0.546E-02    0.90       1.0  T
  13    -12.8666184 -0.486541E-06  0.494E-02    0.90       1.0  T
  14    -12.8666638 -0.454692E-04  0.262E-02    0.90       1.1  T
  15    -12.8666816 -0.177306E-04  0.124E-02    0.90       2.3  T
  16    -12.8666821 -0.548998E-06  0.328E-03    0.90       8.8  T
  17    -12.8666821  0.378004E-07  0.293E-03    0.90       9.9  T
  18    -12.8666822 -0.753752E-07  0.440E-04    0.90      65.6  T
  19    -12.8666822 -0.550868E-08  0.218E-04    0.90     132.6  T
     SCC iter.                  ...        0 min,  0.004 sec
     gradient                   ...        0 min,  0.000 sec
 * total energy  :   -12.5868686 Eh     change       -0.8004808E-01 Eh
   gradient norm :     0.1793210 Eh/α   predicted    -0.1156230E+00 (  44.44%)
   displ. norm   :     0.6756092 α      lambda       -0.8544359E-01
   maximum displ.:     0.2936794 α      in ANC's #16, #9, #30, ...

........................................................................
.............................. CYCLE    5 ..............................
........................................................................
   1    -12.8681289 -0.128681E+02  0.196E+00    0.95       0.0  T
   2    -12.7978703  0.702586E-01  0.253E+00    1.06       1.0  T
   3    -12.8559852 -0.581149E-01  0.131E+00    1.05       1.0  T
   4    -11.8257969  0.103019E+01  0.588E+00    0.46       1.0  T
   5    -12.7965733 -0.970776E+00  0.167E+00    0.90       1.0  T
   6    -12.8771305 -0.805573E-01  0.491E-01    0.95       1.0  T
   7    -12.8814743 -0.434383E-02  0.182E-01    1.04       1.0  T
   8    -12.8794809  0.199347E-02  0.248E-01    1.05       1.0  T
   9    -12.8808303 -0.134945E-02  0.192E-01    1.05       1.0  T
  10    -12.8814355 -0.605133E-03  0.116E-01    1.04       1.0  T
  11    -12.8814248  0.106702E-04  0.116E-01    1.04       1.0  T
  12    -12.8815390 -0.114197E-03  0.989E-02    1.04       1.0  T
  13    -12.8815672 -0.282469E-04  0.933E-02    1.04       1.0  T
  14    -12.8815941 -0.269071E-04  0.823E-02    1.04       1.0  T
  15    -12.8816122 -0.180773E-04  0.729E-02    1.04       1.0  T
  16    -12.8816416 -0.293375E-04  0.507E-02    1.04       1.0  T
  17    -12.8816660 -0.244465E-04  0.191E-02    1.03       1.5  T
  18    -12.8816701 -0.406266E-05  0.351E-03    1.03       8.2  T
  19    -12.8816702 -0.128064E-06  0.184E-03    1.03      15.7  T
  20    -12.8816702 -0.392110E-07  0.917E-04    1.03      31.5  T
  21    -12.8816702 -0.757117E-08  0.416E-04    1.03      69.4  T
     SCC iter.                  ...        0 min,  0.004 sec
     gradient                   ...        0 min,  0.001 sec
 * total energy  :   -12.6399284 Eh     change       -0.5305987E-01 Eh
   gradient norm :     0.1157185 Eh/α   predicted    -0.6222206E-01 (  17.27%)
   displ. norm   :     0.7518164 α      lambda       -0.6978308E-01
   maximum displ.:     0.3364297 α      in ANC's #30, #11, #3, ...

........................................................................
.............................. CYCLE    6 ..............................
........................................................................
   1    -12.8774041 -0.128774E+02  0.228E+00    1.00       0.0  T
   2    -12.7132794  0.164125E+00  0.255E+00    1.09       1.0  T
   3    -11.8210246  0.892255E+00  0.648E+00    0.71       1.0  T
   4    -12.5530429 -0.732018E+00  0.375E+00    0.86       1.0  T
   5    -12.6843427 -0.131300E+00  0.279E+00    0.82       1.0  T
   6    -12.8646638 -0.180321E+00  0.990E-01    1.05       1.0  T
   7    -12.8906522 -0.259884E-01  0.556E-01    1.05       1.0  T
   8    -12.8897067  0.945523E-03  0.490E-01    1.05       1.0  T
   9    -12.8923936 -0.268689E-02  0.315E-01    1.05       1.0  T
  10    -12.8914034  0.990178E-03  0.338E-01    1.05       1.0  T
  11    -12.8907193  0.684110E-03  0.343E-01    1.04       1.0  T
  12    -12.8915813 -0.862009E-03  0.308E-01    1.05       1.0  T
  13    -12.8918413 -0.259982E-03  0.279E-01    1.05       1.0  T
  14    -12.8919958 -0.154488E-03  0.258E-01    1.05       1.0  T
  15    -12.8921398 -0.144083E-03  0.235E-01    1.05       1.0  T
  16    -12.8922498 -0.109973E-03  0.215E-01    1.05       1.0  T
  17    -12.8926071 -0.357317E-03  0.126E-01    1.05       1.0  T
  18    -12.8927771 -0.169936E-03  0.345E-02    1.05       1.0  T
  19    -12.8927873 -0.102581E-04  0.161E-02    1.05       1.8  T
  20    -12.8927899 -0.261572E-05  0.714E-03    1.05       4.0  T
  21    -12.8927905 -0.532730E-06  0.334E-03    1.05       8.6  T
  22    -12.8927906 -0.134717E-06  0.166E-04    1.05     174.1  T
  23    -12.8927906 -0.395920E-09  0.465E-05    1.05     620.8  T
     SCC iter.                  ...        0 min,  0.004 sec
     gradient                   ...        0 min,  0.001 sec
 * total energy  :   -12.6752423 Eh     change       -0.3531382E-01 Eh
   gradient norm :     0.1152840 Eh/α   predicted    -0.5461321E-01 (  54.65%)
   displ. norm   :     0.7265804 α      lambda       -0.5417047E-01
   maximum displ.:     0.2925951 α      in ANC's #30, #9, #4, ...

........................................................................
.............................. CYCLE    7 ..............................
........................................................................
   1    -12.9436987 -0.129437E+02  0.190E+00    0.83       0.0  T
   2    -12.8489039  0.947948E-01  0.237E+00    1.32       1.0  T
   3    -12.8850763 -0.361724E-01  0.179E+00    0.80       1.0  T
   4    -12.7026727  0.182404E+00  0.304E+00    0.81       1.0  T
   5    -12.9327446 -0.230072E+00  0.999E-01    0.93       1.0  T
   6    -12.9550363 -0.222918E-01  0.458E-01    0.95       1.0  T
   7    -12.9558079 -0.771580E-03  0.347E-01    0.98       1.0  T
   8    -12.9576867 -0.187879E-02  0.279E-01    0.97       1.0  T
   9    -12.9582620 -0.575274E-03  0.198E-01    0.98       1.0  T
  10    -12.9586509 -0.388920E-03  0.107E-01    0.97       1.0  T
  11    -12.9585536  0.973283E-04  0.111E-01    0.97       1.0  T
  12    -12.9586346 -0.810580E-04  0.852E-02    0.97       1.0  T
  13    -12.9586860 -0.513813E-04  0.548E-02    0.97       1.0  T
  14    -12.9587026 -0.165382E-04  0.365E-02    0.97       1.0  T
  15    -12.9587181 -0.155683E-04  0.402E-03    0.97       7.2  T
  16    -12.9587183 -0.143508E-06  0.988E-04    0.97      29.2  T
  17    -12.9587183 -0.405856E-08  0.262E-04    0.97     110.2  T
     SCC iter.                  ...        0 min,  0.004 sec
     gradient                   ...        0 min,  0.001 sec
 * total energy  :   -12.7118687 Eh     change       -0.3662646E-01 Eh
   gradient norm :     0.1057545 Eh/α   predicted    -0.4138405E-01 (  12.99%)
   displ. norm   :     0.7092592 α      lambda       -0.4713705E-01
   maximum displ.:     0.2668655 α      in ANC's #18, #4, #30, ...

........................................................................
.............................. CYCLE    8 ..............................
........................................................................
   1    -13.0130919 -0.130131E+02  0.218E+00    1.08       0.0  T
   2    -12.9340159  0.790761E-01  0.265E+00    1.07       1.0  T
   3    -12.9582046 -0.241888E-01  0.195E+00    1.19       1.0  T
   4    -12.8060771  0.152128E+00  0.280E+00    0.96       1.0  T
   5    -13.0096020 -0.203525E+00  0.807E-01    1.02       1.0  T
   6    -13.0198009 -0.101989E-01  0.493E-01    1.12       1.0  T
   7    -13.0250637 -0.526279E-02  0.230E-01    1.07       1.0  T
   8    -13.0252503 -0.186656E-03  0.223E-01    1.10       1.0  T
   9    -13.0249652  0.285125E-03  0.176E-01    1.09       1.0  T
  10    -13.0257320 -0.766822E-03  0.826E-02    1.09       1.0  T
  11    -13.0259023 -0.170245E-03  0.163E-02    1.09       1.8  T
  12    -13.0259014  0.893533E-06  0.106E-02    1.10       2.7  T
  13    -13.0259034 -0.199735E-05  0.638E-03    1.10       4.5  T
  14    -13.0259037 -0.350038E-06  0.300E-03    1.10       9.6  T
  15    -13.0259038 -0.260470E-07  0.196E-03    1.10      14.7  T
  16    -13.0259038 -0.645189E-07  0.631E-04    1.10      45.7  T
  17    -13.0259038 -0.808715E-08  0.212E-04    1.10     136.1  T
     SCC iter.                  ...        0 min,  0.003 sec
     gradient                   ...        0 min,  0.001 sec
 * total energy  :   -12.7345551 Eh     change       -0.2268635E-01 Eh
   gradient norm :     0.1190813 Eh/α   predicted    -0.3542464E-01 (  56.15%)
   displ. norm   :     0.6262948 α      lambda       -0.4520257E-01
   maximum displ.:     0.2405255 α      in ANC's #30, #11, #3, ...

........................................................................
.............................. CYCLE    9 ..............................
........................................................................
   1    -13.0802957 -0.130803E+02  0.183E+00    1.21       0.0  T
   2    -13.0627657  0.175300E-01  0.127E+00    1.32       1.0  T
   3    -12.0145807  0.104818E+01  0.690E+00    0.90       1.0  T
   4    -13.0023176 -0.987737E+00  0.189E+00    1.08       1.0  T
   5    -13.0751711 -0.728535E-01  0.594E-01    1.25       1.0  T
   6    -13.0820890 -0.691791E-02  0.159E-01    1.26       1.0  T
   7    -13.0815830  0.505959E-03  0.216E-01    1.28       1.0  T
   8    -13.0822877 -0.704664E-03  0.116E-01    1.28       1.0  T
   9    -13.0817741  0.513616E-03  0.157E-01    1.27       1.0  T
  10    -13.0823387 -0.564674E-03  0.833E-02    1.27       1.0  T
  11    -13.0824214 -0.826321E-04  0.583E-02    1.27       1.0  T
  12    -13.0824317 -0.103579E-04  0.523E-02    1.27       1.0  T
  13    -13.0824371 -0.537284E-05  0.466E-02    1.27       1.0  T
  14    -13.0824460 -0.892998E-05  0.387E-02    1.27       1.0  T
  15    -13.0824496 -0.353287E-05  0.343E-02    1.27       1.0  T
  16    -13.0824560 -0.640350E-05  0.220E-02    1.27       1.3  T
  17    -13.0824600 -0.406372E-05  0.469E-03    1.27       6.2  T
  18    -13.0824602 -0.172040E-06  0.526E-04    1.27      54.9  T
  19    -13.0824602 -0.278582E-08  0.220E-04    1.27     131.3  T
     SCC iter.                  ...        0 min,  0.004 sec
     gradient                   ...        0 min,  0.001 sec
 * total energy  :   -12.7498484 Eh     change       -0.1529328E-01 Eh
   gradient norm :     0.1599162 Eh/α   predicted    -0.3146653E-01 ( 105.75%)
   displ. norm   :     0.5931245 α      lambda       -0.5958539E-01
   maximum displ.:     0.2116283 α      in ANC's #5, #4, #22, ...

........................................................................
.............................. CYCLE   10 ..............................
........................................................................
   1    -12.9882725 -0.129883E+02  0.219E+00    0.77       0.0  T
   2    -12.8798176  0.108455E+00  0.257E+00    0.93       1.0  T
   3    -12.8194495  0.603680E-01  0.280E+00    0.75       1.0  T
   4    -12.8717131 -0.522635E-01  0.226E+00    0.67       1.0  T
   5    -12.9823344 -0.110621E+00  0.929E-01    0.88       1.0  T
   6    -12.9986745 -0.163401E-01  0.599E-01    0.71       1.0  T
   7    -13.0019293 -0.325480E-02  0.427E-01    0.77       1.0  T
   8    -13.0020124 -0.831163E-04  0.395E-01    0.77       1.0  T
   9    -13.0033831 -0.137074E-02  0.150E-01    0.77       1.0  T
  10    -13.0034688 -0.856437E-04  0.817E-02    0.78       1.0  T
  11    -13.0034739 -0.511168E-05  0.689E-02    0.77       1.0  T
  12    -13.0034713  0.257735E-05  0.307E-02    0.78       1.0  T
  13    -13.0034784 -0.712953E-05  0.144E-02    0.77       2.0  T
  14    -13.0034781  0.302649E-06  0.908E-03    0.77       3.2  T
  15    -13.0034790 -0.874138E-06  0.282E-03    0.77      10.2  T
  16    -13.0034791 -0.104635E-06  0.954E-04    0.77      30.3  T
  17    -13.0034791 -0.245945E-07  0.188E-04    0.77     153.3  T
     SCC iter.                  ...        0 min,  0.004 sec
     gradient                   ...        0 min,  0.001 sec
 * total energy  :   -12.7566796 Eh     change       -0.6831213E-02 Eh
   gradient norm :     0.1627861 Eh/α   predicted    -0.4027364E-01 ( 489.55%)
   displ. norm   :     0.5864261 α      lambda       -0.5679122E-01
   maximum displ.:     0.2413365 α      in ANC's #3, #19, #16, ...

........................................................................
.............................. CYCLE   11 ..............................
........................................................................
   1    -13.0363342 -0.130363E+02  0.291E+00    0.49       0.0  T
   2    -12.2647509  0.771583E+00  0.839E+00    0.60       1.0  T
   3    -13.0488878 -0.784137E+00  0.184E+00    0.29       1.0  T
   4    -12.7421482  0.306740E+00  0.357E+00    0.48       1.0  T
   5    -12.9922533 -0.250105E+00  0.173E+00    0.45       1.0  T
   6    -13.0472473 -0.549940E-01  0.122E+00    0.27       1.0  T
   7    -13.0648230 -0.175757E-01  0.668E-01    0.27       1.0  T
   8    -13.0664456 -0.162266E-02  0.612E-01    0.26       1.0  T
   9    -13.0664684 -0.227599E-04  0.622E-01    0.26       1.0  T
  10    -13.0680214 -0.155302E-02  0.332E-01    0.24       1.0  T
  11    -13.0684884 -0.467016E-03  0.253E-01    0.23       1.0  T
  12    -13.0684644  0.239676E-04  0.267E-01    0.23       1.0  T
  13    -13.0685719 -0.107506E-03  0.172E-01    0.23       1.0  T
  14    -13.0686537 -0.817267E-04  0.266E-02    0.23       1.1  T
  15    -13.0686574 -0.371952E-05  0.223E-02    0.23       1.3  T
  16    -13.0686604 -0.297279E-05  0.379E-03    0.23       7.6  T
  17    -13.0686604 -0.721839E-08  0.511E-03    0.23       5.6  T
  18    -13.0686603  0.172121E-07  0.277E-03    0.23      10.4  T
  19    -13.0686604 -0.261239E-07  0.132E-04    0.23     218.5  T
  20    -13.0686604  0.757900E-10  0.328E-04    0.23      88.0  T
     SCC iter.                  ...        0 min,  0.005 sec
     gradient                   ...        0 min,  0.001 sec
 * total energy  :   -12.7867946 Eh     change       -0.3011500E-01 Eh
   gradient norm :     0.1019985 Eh/α   predicted    -0.3816071E-01 (  26.72%)
   displ. norm   :     0.6418795 α      lambda       -0.4178390E-01
   maximum displ.:     0.3549739 α      in ANC's #10, #3, #27, ...

........................................................................
.............................. CYCLE   12 ..............................
........................................................................
   1    -13.1393675 -0.131394E+02  0.382E+00    0.15       0.0  T
   2    -12.8896549  0.249713E+00  0.424E+00    0.95       1.0  T
   3    -12.5086140  0.381041E+00  0.779E+00    0.83       1.0  T
   4    -12.8272747 -0.318661E+00  0.687E+00    0.33       1.0  T
   5    -12.6859773  0.141297E+00  0.669E+00    0.51       1.0  T
   6    -12.5637723  0.122205E+00  0.533E+00    0.32       1.0  T
   7    -13.1412262 -0.577454E+00  0.136E+00    0.14       1.0  T
   8    -13.1019915  0.392347E-01  0.302E+00    0.28       1.0  T
   9    -13.1040320 -0.204055E-02  0.298E+00    0.29       1.0  T
  10    -13.1061473 -0.211527E-02  0.289E+00    0.29       1.0  T
  11    -13.1194862 -0.133389E-01  0.243E+00    0.26       1.0  T
  12    -13.1572316 -0.377454E-01  0.103E+00    0.17       1.0  T
  13    -13.1571042  0.127432E-03  0.821E-01    0.18       1.0  T
  14    -13.1577501 -0.645885E-03  0.713E-01    0.17       1.0  T
  15    -13.1526990  0.505105E-02  0.138E+00    0.16       1.0  T
  16    -13.1552319 -0.253293E-02  0.111E+00    0.16       1.0  T
  17    -13.1596957 -0.446377E-02  0.236E-01    0.18       1.0  T
  18    -13.1597516 -0.559063E-04  0.212E-01    0.18       1.0  T
  19    -13.1598561 -0.104440E-03  0.146E-01    0.18       1.0  T
  20    -13.1598152  0.408338E-04  0.177E-01    0.17       1.0  T
  21    -13.1598052  0.100480E-04  0.170E-01    0.17       1.0  T
  22    -13.1598346 -0.293895E-04  0.116E-01    0.18       1.0  T
  23    -13.1598432 -0.860200E-05  0.108E-01    0.18       1.0  T
  24    -13.1598720 -0.288086E-04  0.545E-02    0.18       1.0  T
  25    -13.1598759 -0.389236E-05  0.382E-02    0.18       1.0  T
  26    -13.1598798 -0.395047E-05  0.102E-02    0.18       2.8  T
  27    -13.1598801 -0.252052E-06  0.473E-03    0.18       6.1  T
  28    -13.1598801 -0.694984E-07  0.802E-04    0.18      36.0  T
  29    -13.1598801 -0.150569E-08  0.385E-04    0.18      75.0  T
     SCC iter.                  ...        0 min,  0.011 sec
     gradient                   ...        0 min,  0.001 sec
 * total energy  :   -12.8163898 Eh     change       -0.2959527E-01 Eh
   gradient norm :     0.1558120 Eh/α   predicted    -0.2949961E-01 (  -0.32%)
   displ. norm   :     0.7487551 α      lambda       -0.5531279E-01
   maximum displ.:     0.3583873 α      in ANC's #3, #10, #12, ...

........................................................................
.............................. CYCLE   13 ..............................
........................................................................
   1    -13.0923986 -0.130924E+02  0.528E+00    0.22       0.0  T
   2    -12.5041006  0.588298E+00  0.696E+00    0.83       1.0  T
   3    -12.5266176 -0.225170E-01  0.654E+00    1.25       1.0  T
   4    -13.0219905 -0.495373E+00  0.525E+00    0.31       1.0  T
   5    -13.0453580 -0.233675E-01  0.245E+00    0.16       1.0  T
   6    -12.9965531  0.488049E-01  0.277E+00    0.24       1.0  T
   7    -13.1381407 -0.141588E+00  0.120E+00    0.18       1.0  T
   8    -13.1320048  0.613588E-02  0.130E+00    0.19       1.0  T
   9    -13.1370015 -0.499674E-02  0.115E+00    0.19       1.0  T
  10    -13.1366026  0.398920E-03  0.178E+00    0.20       1.0  T
  11    -13.1321812  0.442143E-02  0.194E+00    0.20       1.0  T
  12    -13.1356260 -0.344485E-02  0.165E+00    0.20       1.0  T
  13    -13.1382159 -0.258989E-02  0.120E+00    0.20       1.0  T
  14    -13.1384474 -0.231429E-03  0.108E+00    0.20       1.0  T
  15    -13.1403696 -0.192225E-02  0.770E-01    0.20       1.0  T
  16    -13.1419231 -0.155351E-02  0.190E-01    0.20       1.0  T
  17    -13.1416611  0.262022E-03  0.319E-01    0.20       1.0  T
  18    -13.1420823 -0.421159E-03  0.863E-02    0.20       1.0  T
  19    -13.1421049 -0.226081E-04  0.629E-02    0.20       1.0  T
  20    -13.1421165 -0.116059E-04  0.404E-02    0.20       1.0  T
  21    -13.1421190 -0.251504E-05  0.184E-02    0.20       1.6  T
  22    -13.1421198 -0.807764E-06  0.462E-03    0.20       6.2  T
  23    -13.1421199 -0.791300E-07  0.653E-04    0.20      44.2  T
  24    -13.1421199 -0.348057E-08  0.287E-04    0.20     100.5  T
     SCC iter.                  ...        0 min,  0.015 sec
     gradient                   ...        0 min,  0.001 sec
 * total energy  :   -12.8178479 Eh     change       -0.1458025E-02 Eh
   gradient norm :     0.3183717 Eh/α   predicted    -0.4316150E-01 (2860.27%)
   displ. norm   :     0.4721010 α      lambda       -0.9568864E-01
   maximum displ.:     0.1681508 α      in ANC's #27, #19, #6, ...

........................................................................
.............................. CYCLE   14 ..............................
........................................................................
   1    -13.1045058 -0.131045E+02  0.406E+00    0.44       0.0  T
   2    -12.1686070  0.935899E+00  0.857E+00    0.98       1.0  T
   3    -12.8963881 -0.727781E+00  0.386E+00    0.69       1.0  T
   4    -13.1498013 -0.253413E+00  0.310E+00    0.30       1.0  T
   5    -13.1404123  0.938897E-02  0.263E+00    0.29       1.0  T
   6    -13.1560261 -0.156137E-01  0.238E+00    0.28       1.0  T
   7    -13.1607324 -0.470634E-02  0.205E+00    0.25       1.0  T
   8    -13.1645978 -0.386541E-02  0.159E+00    0.23       1.0  T
   9    -13.1651803 -0.582447E-03  0.164E+00    0.23       1.0  T
  10    -13.1672057 -0.202547E-02  0.934E-01    0.23       1.0  T
  11    -13.1674137 -0.207911E-03  0.835E-01    0.24       1.0  T
  12    -13.1683578 -0.944189E-03  0.627E-01    0.23       1.0  T
  13    -13.1691085 -0.750634E-03  0.216E-01    0.22       1.0  T
  14    -13.1691598 -0.513712E-04  0.156E-01    0.22       1.0  T
  15    -13.1692050 -0.451227E-04  0.129E-01    0.22       1.0  T
  16    -13.1692125 -0.757062E-05  0.369E-02    0.23       1.0  T
  17    -13.1692156 -0.303912E-05  0.152E-02    0.23       1.9  T
  18    -13.1692172 -0.160078E-05  0.600E-03    0.23       4.8  T
  19    -13.1692172  0.138814E-08  0.423E-03    0.23       6.8  T
  20    -13.1692172 -0.125488E-07  0.146E-03    0.23      19.8  T
  21    -13.1692172 -0.363848E-08  0.692E-04    0.23      41.7  T
  22    -13.1692172 -0.846798E-09  0.223E-04    0.23     129.6  T
     SCC iter.                  ...        0 min,  0.023 sec
     gradient                   ...        0 min,  0.001 sec
 * total energy  :   -12.8674802 Eh     change       -0.4963237E-01 Eh
   gradient norm :     0.1457830 Eh/α   predicted    -0.5850782E-01 (  17.88%)
   displ. norm   :     0.7817580 α      lambda       -0.8876380E-01
   maximum displ.:     0.3997241 α      in ANC's #16, #12, #6, ...

........................................................................
.............................. CYCLE   15 ..............................
........................................................................
   1    -13.2111554 -0.132112E+02  0.275E+00    0.60       0.0  T
   2    -13.1650265  0.461289E-01  0.237E+00    0.37       1.0  T
   3    -13.0954269  0.695995E-01  0.275E+00    0.90       1.0  T
   4    -13.1663553 -0.709283E-01  0.199E+00    0.53       1.0  T
   5    -13.1974468 -0.310916E-01  0.114E+00    0.60       1.0  T
   6    -13.2173677 -0.199208E-01  0.654E-01    0.61       1.0  T
   7    -13.2181457 -0.777988E-03  0.595E-01    0.60       1.0  T
   8    -13.2199324 -0.178677E-02  0.340E-01    0.59       1.0  T
   9    -13.2198143  0.118128E-03  0.178E-01    0.59       1.0  T
  10    -13.2201270 -0.312673E-03  0.845E-02    0.58       1.0  T
  11    -13.2201271 -0.118625E-06  0.777E-02    0.58       1.0  T
  12    -13.2201320 -0.489779E-05  0.239E-02    0.58       1.2  T
  13    -13.2201352 -0.318178E-05  0.885E-03    0.58       3.3  T
  14    -13.2201355 -0.286139E-06  0.651E-03    0.58       4.4  T
  15    -13.2201357 -0.278427E-06  0.281E-03    0.58      10.3  T
  16    -13.2201358 -0.672152E-07  0.569E-04    0.58      50.8  T
  17    -13.2201358 -0.319275E-08  0.211E-04    0.58     137.0  T
     SCC iter.                  ...        0 min,  0.007 sec
     gradient                   ...        0 min,  0.001 sec
 * total energy  :   -12.8581629 Eh     change        0.9317292E-02 Eh
   gradient norm :     0.3506256 Eh/α   predicted    -0.7150571E-01 (-867.45%)
   displ. norm   :     0.5149876 α      lambda       -0.1099375E+00
   maximum displ.:     0.2584302 α      in ANC's #10, #6, #14, ...

........................................................................
.............................. CYCLE   16 ..............................
........................................................................
   1    -13.1886831 -0.131887E+02  0.174E+00    0.66       0.0  T
   2    -13.1825092  0.617389E-02  0.126E+00    0.68       1.0  T
   3    -13.1402217  0.422875E-01  0.153E+00    0.58       1.0  T
   4    -13.1351631  0.505863E-02  0.158E+00    0.75       1.0  T
   5    -13.1862067 -0.510436E-01  0.444E-01    0.69       1.0  T
   6    -13.1902182 -0.401156E-02  0.214E-01    0.67       1.0  T
   7    -13.1912628 -0.104451E-02  0.156E-01    0.66       1.0  T
   8    -13.1912783 -0.155036E-04  0.110E-01    0.66       1.0  T
   9    -13.1914075 -0.129268E-03  0.287E-02    0.65       1.0  T
  10    -13.1914111 -0.357788E-05  0.147E-02    0.66       2.0  T
  11    -13.1914130 -0.185471E-05  0.108E-02    0.66       2.7  T
  12    -13.1914152 -0.227798E-05  0.344E-03    0.66       8.4  T
  13    -13.1914154 -0.142799E-06  0.124E-03    0.66      23.2  T
  14    -13.1914154 -0.122828E-07  0.350E-04    0.66      82.4  T
  15    -13.1914154 -0.181392E-08  0.149E-04    0.66     194.2  T
     SCC iter.                  ...        0 min,  0.005 sec
     gradient                   ...        0 min,  0.001 sec
 * total energy  :   -12.8867394 Eh     change       -0.2857649E-01 Eh
   gradient norm :     0.2626467 Eh/α   predicted    -0.6954710E-01 ( 143.37%)
   displ. norm   :     0.7980642 α      lambda       -0.1420309E+00
   maximum displ.:     0.4907148 α      in ANC's #16, #3, #1, ...

........................................................................
.............................. CYCLE   17 ..............................
........................................................................
   1    -13.1657428 -0.131657E+02  0.171E+00    0.62       0.0  T
   2    -13.1416322  0.241106E-01  0.181E+00    0.72       1.0  T
   3    -13.1601628 -0.185306E-01  0.113E+00    0.56       1.0  T
   4    -13.1033589  0.568039E-01  0.189E+00    0.72       1.0  T
   5    -13.1708810 -0.675221E-01  0.539E-01    0.66       1.0  T
   6    -13.1742668 -0.338584E-02  0.353E-01    0.65       1.0  T
   7    -13.1757504 -0.148357E-02  0.127E-01    0.61       1.0  T
   8    -13.1752944  0.456019E-03  0.181E-01    0.62       1.0  T
   9    -13.1758170 -0.522651E-03  0.405E-02    0.62       1.0  T
  10    -13.1758289 -0.118696E-04  0.269E-02    0.63       1.1  T
  11    -13.1758342 -0.531005E-05  0.932E-03    0.63       3.1  T
  12    -13.1758349 -0.663351E-06  0.402E-03    0.63       7.2  T
  13    -13.1758350 -0.123041E-06  0.162E-03    0.63      17.9  T
  14    -13.1758350 -0.161570E-08  0.982E-04    0.63      29.4  T
  15    -13.1758350 -0.136292E-07  0.251E-04    0.63     115.1  T
     SCC iter.                  ...        0 min,  0.018 sec
     gradient                   ...        0 min,  0.001 sec
 * total energy  :   -12.8378127 Eh     change        0.4892675E-01 Eh
   gradient norm :     0.4431648 Eh/α   predicted    -0.1162456E+00 (-337.59%)
   displ. norm   :     0.3877917 α      lambda       -0.1490328E+00
   maximum displ.:     0.2146391 α      in ANC's #16, #8, #10, ...

........................................................................
.............................. CYCLE   18 ..............................
........................................................................
   1    -13.1926041 -0.131926E+02  0.135E+00    0.78       0.0  T
   2    -13.1703974  0.222066E-01  0.162E+00    0.66       1.0  T
   3    -13.1982814 -0.278839E-01  0.710E-01    0.79       1.0  T
   4    -13.1390084  0.592729E-01  0.152E+00    0.63       1.0  T
   5    -13.1955733 -0.565649E-01  0.612E-01    0.74       1.0  T
   6    -13.2021972 -0.662393E-02  0.147E-01    0.76       1.0  T
   7    -13.2027685 -0.571283E-03  0.767E-02    0.76       1.0  T
   8    -13.2027681  0.405424E-06  0.668E-02    0.75       1.0  T
   9    -13.2027785 -0.103594E-04  0.272E-02    0.75       1.1  T
  10    -13.2027852 -0.675522E-05  0.170E-02    0.76       1.7  T
  11    -13.2027893 -0.405682E-05  0.107E-02    0.76       2.7  T
  12    -13.2027892  0.701055E-07  0.284E-03    0.76      10.2  T
  13    -13.2027893 -0.121013E-06  0.652E-04    0.76      44.3  T
  14    -13.2027893 -0.386168E-08  0.100E-04    0.76     288.3  T
     SCC iter.                  ...        0 min,  0.005 sec
     gradient                   ...        0 min,  0.001 sec
 * total energy  :   -12.8915254 Eh     change       -0.5371267E-01 Eh
   gradient norm :     0.1689283 Eh/α   predicted    -0.8572240E-01 (  59.59%)
   displ. norm   :     0.6305058 α      lambda       -0.5824288E-01
   maximum displ.:     0.3533116 α      in ANC's #1, #2, #16, ...

........................................................................
.............................. CYCLE   19 ..............................
........................................................................
   1    -13.2414163 -0.132414E+02  0.169E+00    0.69       0.0  T
   2    -13.2401604  0.125590E-02  0.109E+00    0.79       1.0  T
   3    -13.2266385  0.135220E-01  0.126E+00    0.57       1.0  T
   4    -13.2350970 -0.845850E-02  0.616E-01    0.79       1.0  T
   5    -13.2424185 -0.732154E-02  0.178E-01    0.73       1.0  T
   6    -13.2423613  0.572005E-04  0.159E-01    0.73       1.0  T
   7    -13.2426134 -0.252072E-03  0.775E-02    0.73       1.0  T
   8    -13.2426367 -0.233538E-04  0.394E-02    0.73       1.0  T
   9    -13.2426617 -0.249498E-04  0.133E-02    0.73       2.2  T
  10    -13.2426623 -0.620660E-06  0.970E-03    0.73       3.0  T
  11    -13.2426636 -0.128694E-05  0.142E-03    0.73      20.4  T
  12    -13.2426636  0.120304E-07  0.132E-03    0.73      21.9  T
  13    -13.2426636 -0.273982E-07  0.226E-04    0.73     127.6  T
  14    -13.2426636 -0.666239E-09  0.101E-04    0.73     285.2  T
     SCC iter.                  ...        0 min,  0.004 sec
     gradient                   ...        0 min,  0.001 sec
 * total energy  :   -12.9156595 Eh     change       -0.2413413E-01 Eh
   gradient norm :     0.1021811 Eh/α   predicted    -0.4069831E-01 (  68.63%)
   displ. norm   :     0.4573298 α      lambda       -0.2365421E-01
   maximum displ.:     0.2482615 α      in ANC's #10, #3, #14, ...

........................................................................
.............................. CYCLE   20 ..............................
........................................................................
   1    -13.2181250 -0.132181E+02  0.108E+00    0.78       0.0  T
   2    -13.2174239  0.701149E-03  0.719E-01    0.76       1.0  T
   3    -13.2015571  0.158668E-01  0.920E-01    0.78       1.0  T
   4    -13.2171042 -0.155471E-01  0.246E-01    0.79       1.0  T
   5    -13.2182469 -0.114268E-02  0.136E-01    0.76       1.0  T
   6    -13.2183284 -0.814890E-04  0.886E-02    0.76       1.0  T
   7    -13.2183744 -0.459962E-04  0.642E-02    0.76       1.0  T
   8    -13.2184012 -0.267893E-04  0.387E-02    0.77       1.0  T
   9    -13.2184324 -0.312986E-04  0.121E-02    0.77       2.4  T
  10    -13.2184343 -0.188419E-05  0.318E-03    0.77       9.1  T
  11    -13.2184343 -0.142322E-07  0.238E-03    0.77      12.1  T
  12    -13.2184344 -0.387129E-07  0.102E-03    0.77      28.3  T
  13    -13.2184344 -0.147541E-07  0.277E-04    0.77     104.1  T
  14    -13.2184344 -0.174092E-08  0.732E-05    0.77     394.5  T
     SCC iter.                  ...        0 min,  0.004 sec
     gradient                   ...        0 min,  0.001 sec
 * total energy  :   -12.9196481 Eh     change       -0.3988653E-02 Eh
   gradient norm :     0.0992636 Eh/α   predicted    -0.1430075E-01 ( 258.54%)
   displ. norm   :     0.4666052 α      lambda       -0.2427009E-01
   maximum displ.:     0.1736041 α      in ANC's #17, #6, #15, ...
 * RMSD in coord.:     1.8834783 α      energy gain  -0.8428960E+00 Eh

generating ANC from model Hessian ...
Using Lindh-Hessian (1995)
 Shifting diagonal of input Hessian by    1.4200260566786398E-002
 Lowest  eigenvalues of input Hessian
    0.010000    0.013694    0.013891    0.013968    0.014067    0.014088
    0.014196    0.000000    0.000000    0.000000    0.000000    0.000000
    0.000000    0.014510    0.014935    0.015169    0.015346    0.016227
 Highest eigenvalues
    0.801744    0.861993    0.943415    1.083908    1.555621    2.520624


........................................................................
.............................. CYCLE   21 ..............................
........................................................................
   1    -13.2428193 -0.132428E+02  0.112E+00    0.65       0.0  T
   2    -13.2381715  0.464781E-02  0.794E-01    0.61       1.0  T
   3    -13.2206338  0.175377E-01  0.112E+00    0.65       1.0  T
   4    -13.2284963 -0.786253E-02  0.824E-01    0.70       1.0  T
   5    -13.2436913 -0.151950E-01  0.133E-01    0.65       1.0  T
   6    -13.2440347 -0.343466E-03  0.680E-02    0.63       1.0  T
   7    -13.2440389 -0.411458E-05  0.715E-02    0.63       1.0  T
   8    -13.2440105  0.283143E-04  0.633E-02    0.63       1.0  T
   9    -13.2440891 -0.785101E-04  0.641E-03    0.63       4.5  T
  10    -13.2440891 -0.754125E-07  0.606E-03    0.63       4.8  T
  11    -13.2440891  0.328013E-07  0.520E-03    0.63       5.6  T
  12    -13.2440894 -0.298217E-06  0.776E-04    0.63      37.2  T
  13    -13.2440894 -0.373260E-08  0.220E-04    0.63     131.3  T
     SCC iter.                  ...        0 min,  0.003 sec
     gradient                   ...        0 min,  0.001 sec
 * total energy  :   -12.9165259 Eh     change        0.3122227E-02 Eh
   gradient norm :     0.1263695 Eh/α   predicted     0.0000000E+00 (-100.00%)
   displ. norm   :     0.3610086 α      lambda       -0.2199750E-01
   maximum displ.:     0.1913068 α      in ANC's #14, #13, #12, ...

........................................................................
.............................. CYCLE   22 ..............................
........................................................................
   1    -13.2537394 -0.132537E+02  0.143E+00    0.75       0.0  T
   2    -13.2527616  0.977793E-03  0.100E+00    0.76       1.0  T
   3    -13.2147614  0.380002E-01  0.145E+00    0.75       1.0  T
   4    -13.2501060 -0.353446E-01  0.408E-01    0.72       1.0  T
   5    -13.2537964 -0.369037E-02  0.127E-01    0.77       1.0  T
   6    -13.2539658 -0.169393E-03  0.826E-02    0.76       1.0  T
   7    -13.2540116 -0.458533E-04  0.681E-02    0.76       1.0  T
   8    -13.2540646 -0.529449E-04  0.319E-02    0.76       1.0  T
   9    -13.2540828 -0.182016E-04  0.733E-03    0.76       3.9  T
  10    -13.2540831 -0.299503E-06  0.375E-03    0.76       7.7  T
  11    -13.2540831 -0.552959E-07  0.202E-03    0.76      14.3  T
  12    -13.2540832 -0.399890E-07  0.831E-04    0.76      34.7  T
  13    -13.2540832 -0.755208E-08  0.242E-04    0.76     119.4  T
     SCC iter.                  ...        0 min,  0.003 sec
     gradient                   ...        0 min,  0.001 sec
 * total energy  :   -12.9313325 Eh     change       -0.1480653E-01 Eh
   gradient norm :     0.0421948 Eh/α   predicted    -0.1243219E-01 ( -16.04%)
   displ. norm   :     0.4186464 α      lambda       -0.7025670E-02
   maximum displ.:     0.2533175 α      in ANC's #13, #12, #1, ...

........................................................................
.............................. CYCLE   23 ..............................
........................................................................
   1    -13.2564506 -0.132565E+02  0.154E+00    0.82       0.0  T
   2    -13.2560813  0.369296E-03  0.105E+00    0.84       1.0  T
   3    -13.2345544  0.215269E-01  0.110E+00    0.79       1.0  T
   4    -13.2550837 -0.205293E-01  0.274E-01    0.81       1.0  T
   5    -13.2564692 -0.138547E-02  0.114E-01    0.84       1.0  T
   6    -13.2564942 -0.250552E-04  0.850E-02    0.83       1.0  T
   7    -13.2566245 -0.130286E-03  0.334E-02    0.84       1.0  T
   8    -13.2566348 -0.103159E-04  0.175E-02    0.83       1.6  T
   9    -13.2566393 -0.452832E-05  0.635E-03    0.83       4.5  T
  10    -13.2566396 -0.260812E-06  0.270E-03    0.83      10.7  T
  11    -13.2566397 -0.532776E-07  0.100E-03    0.83      28.8  T
  12    -13.2566397 -0.540203E-08  0.637E-04    0.83      45.3  T
  13    -13.2566397 -0.307606E-08  0.116E-04    0.83     249.5  T
     SCC iter.                  ...        0 min,  0.003 sec
     gradient                   ...        0 min,  0.001 sec
 * total energy  :   -12.9356509 Eh     change       -0.4318487E-02 Eh
   gradient norm :     0.0229877 Eh/α   predicted    -0.4128512E-02 (  -4.40%)
   displ. norm   :     0.3732167 α      lambda       -0.2788136E-02
   maximum displ.:     0.1828140 α      in ANC's #12, #1, #13, ...

........................................................................
.............................. CYCLE   24 ..............................
........................................................................
   1    -13.2582471 -0.132582E+02  0.106E+00    0.85       0.0  T
   2    -13.2582110  0.360812E-04  0.687E-01    0.85       1.0  T
   3    -13.2532310  0.497999E-02  0.467E-01    0.87       1.0  T
   4    -13.2581543 -0.492336E-02  0.943E-02    0.84       1.0  T
   5    -13.2582297 -0.753273E-04  0.623E-02    0.85       1.0  T
   6    -13.2582524 -0.227642E-04  0.368E-02    0.85       1.0  T
   7    -13.2582742 -0.217492E-04  0.126E-02    0.85       2.3  T
   8    -13.2582768 -0.265321E-05  0.540E-03    0.85       5.3  T
   9    -13.2582771 -0.249002E-06  0.232E-03    0.85      12.4  T
  10    -13.2582771 -0.357513E-07  0.963E-04    0.85      30.0  T
  11    -13.2582771 -0.598305E-08  0.628E-04    0.85      46.0  T
     SCC iter.                  ...        0 min,  0.003 sec
     gradient                   ...        0 min,  0.001 sec
 * total energy  :   -12.9379814 Eh     change       -0.2330467E-02 Eh
   gradient norm :     0.0226070 Eh/α   predicted    -0.1588247E-02 ( -31.85%)
   displ. norm   :     0.6693938 α      lambda       -0.4310694E-02
   maximum displ.:     0.4246236 α      in ANC's #13, #12, #1, ...

........................................................................
.............................. CYCLE   25 ..............................
........................................................................
   1    -13.2531818 -0.132532E+02  0.219E+00    0.88       0.0  T
   2    -13.2531865 -0.476130E-05  0.142E+00    0.90       1.0  T
   3    -13.2504451  0.274145E-02  0.468E-01    0.84       1.0  T
   4    -13.2529587 -0.251359E-02  0.149E-01    0.89       1.0  T
   5    -13.2525571  0.401596E-03  0.180E-01    0.88       1.0  T
   6    -13.2531087 -0.551616E-03  0.972E-02    0.90       1.0  T
   7    -13.2532836 -0.174962E-03  0.136E-02    0.89       2.1  T
   8    -13.2532850 -0.134403E-05  0.119E-02    0.89       2.4  T
   9    -13.2532865 -0.155510E-05  0.483E-03    0.89       6.0  T
  10    -13.2532866 -0.213121E-07  0.396E-03    0.89       7.3  T
  11    -13.2532867 -0.127147E-06  0.166E-03    0.89      17.4  T
  12    -13.2532867 -0.514042E-07  0.376E-04    0.89      76.8  T
  13    -13.2532867 -0.461071E-09  0.988E-05    0.89     292.1  T
     SCC iter.                  ...        0 min,  0.003 sec
     gradient                   ...        0 min,  0.001 sec
 * total energy  :   -12.9406852 Eh     change       -0.2703779E-02 Eh
   gradient norm :     0.0226260 Eh/α   predicted    -0.3121111E-02 (  15.44%)
   displ. norm   :     0.3842418 α      lambda       -0.2051372E-02
   maximum displ.:     0.2114632 α      in ANC's #1, #12, #13, ...

........................................................................
.............................. CYCLE   26 ..............................
........................................................................
   1    -13.2624529 -0.132625E+02  0.102E+00    0.90       0.0  T
   2    -13.2624215  0.313984E-04  0.670E-01    0.90       1.0  T
   3    -13.2578807  0.454078E-02  0.437E-01    0.93       1.0  T
   4    -13.2623444 -0.446370E-02  0.100E-01    0.89       1.0  T
   5    -13.2624656 -0.121115E-03  0.436E-02    0.90       1.0  T
   6    -13.2624514  0.141812E-04  0.423E-02    0.90       1.0  T
   7    -13.2624758 -0.244544E-04  0.140E-02    0.90       2.1  T
   8    -13.2624799 -0.407319E-05  0.548E-03    0.90       5.3  T
   9    -13.2624802 -0.296995E-06  0.203E-03    0.90      14.2  T
  10    -13.2624802  0.284300E-07  0.161E-03    0.90      18.0  T
  11    -13.2624802 -0.470843E-07  0.482E-04    0.90      59.9  T
  12    -13.2624802 -0.129683E-08  0.273E-04    0.90     105.7  T
     SCC iter.                  ...        0 min,  0.003 sec
     gradient                   ...        0 min,  0.001 sec
 * total energy  :   -12.9419916 Eh     change       -0.1306407E-02 Eh
   gradient norm :     0.0159940 Eh/α   predicted    -0.1177118E-02 (  -9.90%)
   displ. norm   :     0.3782712 α      lambda       -0.1294907E-02
   maximum displ.:     0.1922513 α      in ANC's #12, #13, #1, ...

........................................................................
.............................. CYCLE   27 ..............................
........................................................................
   1    -13.2652869 -0.132653E+02  0.104E+00    0.93       0.0  T
   2    -13.2652439  0.429805E-04  0.694E-01    0.94       1.0  T
   3    -13.2601879  0.505597E-02  0.470E-01    0.87       1.0  T
   4    -13.2648400 -0.465205E-02  0.144E-01    0.94       1.0  T
   5    -13.2652993 -0.459341E-03  0.584E-02    0.93       1.0  T
   6    -13.2652901  0.923084E-05  0.466E-02    0.93       1.0  T
   7    -13.2653157 -0.256840E-04  0.179E-02    0.93       1.6  T
   8    -13.2653196 -0.380649E-05  0.896E-03    0.93       3.2  T
   9    -13.2653206 -0.109508E-05  0.310E-03    0.93       9.3  T
  10    -13.2653207 -0.369094E-07  0.141E-03    0.93      20.5  T
  11    -13.2653207 -0.269787E-07  0.390E-04    0.93      73.9  T
  12    -13.2653207 -0.322204E-09  0.277E-04    0.93     104.1  T
     SCC iter.                  ...        0 min,  0.003 sec
     gradient                   ...        0 min,  0.001 sec
 * total energy  :   -12.9429019 Eh     change       -0.9103210E-03 Eh
   gradient norm :     0.0108404 Eh/α   predicted    -0.7401010E-03 ( -18.70%)
   displ. norm   :     0.3501247 α      lambda       -0.8025852E-03
   maximum displ.:     0.1904148 α      in ANC's #12, #13, #1, ...

........................................................................
.............................. CYCLE   28 ..............................
........................................................................
   1    -13.2700838 -0.132701E+02  0.861E-01    0.94       0.0  T
   2    -13.2699652  0.118644E-03  0.579E-01    0.95       1.0  T
   3    -13.2596947  0.102705E-01  0.656E-01    0.87       1.0  T
   4    -13.2694788 -0.978410E-02  0.162E-01    0.95       1.0  T
   5    -13.2700929 -0.614118E-03  0.626E-02    0.95       1.0  T
   6    -13.2701005 -0.761903E-05  0.418E-02    0.94       1.0  T
   7    -13.2701112 -0.106845E-04  0.254E-02    0.94       1.1  T
   8    -13.2701229 -0.117052E-04  0.828E-03    0.94       3.5  T
   9    -13.2701237 -0.831480E-06  0.219E-03    0.94      13.2  T
  10    -13.2701237 -0.181229E-09  0.128E-03    0.94      22.6  T
  11    -13.2701238 -0.277597E-07  0.350E-04    0.94      82.5  T
  12    -13.2701238 -0.997071E-09  0.144E-04    0.94     200.4  T
     SCC iter.                  ...        0 min,  0.003 sec
     gradient                   ...        0 min,  0.001 sec
 * total energy  :   -12.9432778 Eh     change       -0.3758728E-03 Eh
   gradient norm :     0.0132881 Eh/α   predicted    -0.4504823E-03 (  19.85%)
   displ. norm   :     0.3036543 α      lambda       -0.5779611E-03
   maximum displ.:     0.1517064 α      in ANC's #13, #12, #1, ...

........................................................................
.............................. CYCLE   29 ..............................
........................................................................
   1    -13.2690818 -0.132691E+02  0.897E-01    0.97       0.0  T
   2    -13.2690659  0.158973E-04  0.588E-01    0.97       1.0  T
   3    -13.2674604  0.160552E-02  0.286E-01    0.98       1.0  T
   4    -13.2690795 -0.161909E-02  0.536E-02    0.97       1.0  T
   5    -13.2690107  0.687873E-04  0.760E-02    0.97       1.0  T
   6    -13.2690745 -0.638004E-04  0.372E-02    0.98       1.0  T
   7    -13.2691069 -0.324455E-04  0.566E-03    0.97       5.1  T
   8    -13.2691068  0.107660E-06  0.657E-03    0.97       4.4  T
   9    -13.2691073 -0.432101E-06  0.237E-03    0.97      12.2  T
  10    -13.2691073 -0.338593E-07  0.566E-04    0.97      51.0  T
  11    -13.2691073 -0.283043E-09  0.369E-04    0.97      78.1  T
     SCC iter.                  ...        0 min,  0.003 sec
     gradient                   ...        0 min,  0.001 sec
 * total energy  :   -12.9434103 Eh     change       -0.1325126E-03 Eh
   gradient norm :     0.0143093 Eh/α   predicted    -0.3156263E-03 ( 138.19%)
   displ. norm   :     0.0875835 α      lambda       -0.3894554E-03
   maximum displ.:     0.0342615 α      in ANC's #4, #13, #14, ...

........................................................................
.............................. CYCLE   30 ..............................
........................................................................
   1    -13.2739497 -0.132739E+02  0.184E-01    0.97       0.0  T
   2    -13.2739473  0.241658E-05  0.115E-01    0.97       1.0  T
   3    -13.2737044  0.242834E-03  0.106E-01    0.98       1.0  T
   4    -13.2739332 -0.228825E-03  0.303E-02    0.97       1.0  T
   5    -13.2739502 -0.169389E-04  0.128E-02    0.97       2.3  T
   6    -13.2739509 -0.685335E-06  0.101E-02    0.97       2.9  T
   7    -13.2739521 -0.123797E-05  0.322E-03    0.97       9.0  T
   8    -13.2739521 -0.184001E-07  0.301E-03    0.97       9.6  T
   9    -13.2739522 -0.112821E-06  0.939E-04    0.97      30.7  T
  10    -13.2739522 -0.208787E-08  0.483E-04    0.97      59.7  T
     SCC iter.                  ...        0 min,  0.003 sec
     gradient                   ...        0 min,  0.001 sec
 * total energy  :   -12.9435302 Eh     change       -0.1198709E-03 Eh
   gradient norm :     0.0073125 Eh/α   predicted    -0.1962200E-03 (  63.69%)
   displ. norm   :     0.0844932 α      lambda       -0.2306686E-03
   maximum displ.:     0.0429372 α      in ANC's #6, #13, #12, ...

........................................................................
.............................. CYCLE   31 ..............................
........................................................................
   1    -13.2714924 -0.132715E+02  0.230E-01    0.98       0.0  T
   2    -13.2714898  0.257938E-05  0.146E-01    0.98       1.0  T
   3    -13.2713143  0.175477E-03  0.112E-01    0.97       1.0  T
   4    -13.2714693 -0.154945E-03  0.335E-02    0.98       1.0  T
   5    -13.2714905 -0.212407E-04  0.172E-02    0.98       1.7  T
   6    -13.2714925 -0.198162E-05  0.149E-02    0.98       1.9  T
   7    -13.2714957 -0.316912E-05  0.309E-03    0.98       9.3  T
   8    -13.2714958 -0.146241E-06  0.124E-03    0.98      23.2  T
   9    -13.2714958 -0.163135E-07  0.625E-04    0.98      46.2  T
  10    -13.2714958 -0.167550E-08  0.423E-04    0.98      68.3  T
     SCC iter.                  ...        0 min,  0.002 sec
     gradient                   ...        0 min,  0.001 sec
 * total energy  :   -12.9436116 Eh     change       -0.8138419E-04 Eh
   gradient norm :     0.0072618 Eh/α   predicted    -0.1161581E-03 (  42.73%)
   displ. norm   :     0.0694055 α      lambda       -0.1376604E-03
   maximum displ.:     0.0355581 α      in ANC's #2, #7, #1, ...

........................................................................
.............................. CYCLE   32 ..............................
........................................................................
   1    -13.2707537 -0.132708E+02  0.157E-01    0.99       0.0  T
   2    -13.2707503  0.338933E-05  0.101E-01    0.99       1.0  T
   3    -13.2704552  0.295120E-03  0.106E-01    0.98       1.0  T
   4    -13.2707386 -0.283418E-03  0.274E-02    0.99       1.1  T
   5    -13.2707542 -0.155860E-04  0.107E-02    0.99       2.7  T
   6    -13.2707544 -0.144902E-06  0.635E-03    0.99       4.5  T
   7    -13.2707549 -0.484008E-06  0.321E-03    0.99       9.0  T
   8    -13.2707550 -0.145494E-06  0.855E-04    0.99      33.7  T
   9    -13.2707550 -0.852929E-08  0.428E-04    0.99      67.5  T
     SCC iter.                  ...        0 min,  0.002 sec
     gradient                   ...        0 min,  0.001 sec
 * total energy  :   -12.9436722 Eh     change       -0.6067315E-04 Eh
   gradient norm :     0.0055531 Eh/α   predicted    -0.6916220E-04 (  13.99%)
   displ. norm   :     0.0783733 α      lambda       -0.1253807E-03
   maximum displ.:     0.0410436 α      in ANC's #2, #4, #12, ...

........................................................................
.............................. CYCLE   33 ..............................
........................................................................
   1    -13.2729237 -0.132729E+02  0.183E-01    1.01       0.0  T
   2    -13.2729187  0.499288E-05  0.120E-01    1.01       1.0  T
   3    -13.2726218  0.296891E-03  0.112E-01    1.01       1.0  T
   4    -13.2728930 -0.271232E-03  0.377E-02    1.01       1.0  T
   5    -13.2729253 -0.323196E-04  0.125E-02    1.01       2.3  T
   6    -13.2729256 -0.296262E-06  0.844E-03    1.01       3.4  T
   7    -13.2729267 -0.103095E-05  0.307E-03    1.01       9.4  T
   8    -13.2729268 -0.121302E-06  0.160E-03    1.01      18.0  T
   9    -13.2729268 -0.261124E-07  0.568E-04    1.01      50.8  T
  10    -13.2729268 -0.587871E-09  0.210E-04    1.01     137.6  T
     SCC iter.                  ...        0 min,  0.002 sec
     gradient                   ...        0 min,  0.001 sec
 * total energy  :   -12.9437359 Eh     change       -0.6368601E-04 Eh
   gradient norm :     0.0051095 Eh/α   predicted    -0.6307386E-04 (  -0.96%)
   displ. norm   :     0.1047607 α      lambda       -0.9372631E-04
   maximum displ.:     0.0507232 α      in ANC's #2, #4, #12, ...

........................................................................
.............................. CYCLE   34 ..............................
........................................................................
   1    -13.2708519 -0.132709E+02  0.269E-01    1.03       0.0  T
   2    -13.2708473  0.461004E-05  0.171E-01    1.03       1.0  T
   3    -13.2704197  0.427621E-03  0.153E-01    1.02       1.0  T
   4    -13.2708174 -0.397736E-03  0.392E-02    1.03       1.0  T
   5    -13.2708517 -0.342708E-04  0.152E-02    1.02       1.9  T
   6    -13.2708520 -0.324956E-06  0.147E-02    1.03       2.0  T
   7    -13.2708546 -0.263599E-05  0.199E-03    1.03      14.5  T
   8    -13.2708547 -0.380830E-07  0.118E-03    1.03      24.5  T
   9    -13.2708547 -0.160831E-07  0.686E-04    1.03      42.1  T
  10    -13.2708547  0.534810E-09  0.482E-04    1.03      59.9  T
     SCC iter.                  ...        0 min,  0.003 sec
     gradient                   ...        0 min,  0.001 sec
 * total energy  :   -12.9437855 Eh     change       -0.4959017E-04 Eh
   gradient norm :     0.0049253 Eh/α   predicted    -0.4737783E-04 (  -4.46%)
   displ. norm   :     0.1209409 α      lambda       -0.1157886E-03
   maximum displ.:     0.0693223 α      in ANC's #6, #2, #15, ...

........................................................................
.............................. CYCLE   35 ..............................
........................................................................
   1    -13.2730112 -0.132730E+02  0.222E-01    1.05       0.0  T
   2    -13.2730037  0.751041E-05  0.141E-01    1.05       1.0  T
   3    -13.2724399  0.563826E-03  0.172E-01    1.03       1.0  T
   4    -13.2729467 -0.506786E-03  0.517E-02    1.05       1.0  T
   5    -13.2730137 -0.670513E-04  0.143E-02    1.05       2.0  T
   6    -13.2730121  0.164159E-05  0.155E-02    1.05       1.9  T
   7    -13.2730151 -0.301798E-05  0.373E-03    1.05       7.7  T
   8    -13.2730152 -0.885637E-07  0.280E-03    1.05      10.3  T
   9    -13.2730153 -0.111923E-06  0.121E-03    1.05      23.8  T
  10    -13.2730153 -0.282844E-08  0.819E-04    1.05      35.2  T
  11    -13.2730153 -0.785977E-08  0.147E-04    1.05     196.4  T
     SCC iter.                  ...        0 min,  0.002 sec
     gradient                   ...        0 min,  0.001 sec
 * total energy  :   -12.9438273 Eh     change       -0.4175388E-04 Eh
   gradient norm :     0.0061546 Eh/α   predicted    -0.5873981E-04 (  40.68%)
   displ. norm   :     0.0471413 α      lambda       -0.4984944E-04
   maximum displ.:     0.0227504 α      in ANC's #9, #11, #2, ...

........................................................................
.............................. CYCLE   36 ..............................
........................................................................
   1    -13.2719416 -0.132719E+02  0.100E-01    1.05       0.0  T
   2    -13.2719403  0.132989E-05  0.632E-02    1.05       1.0  T
   3    -13.2718342  0.106044E-03  0.688E-02    1.04       1.0  T
   4    -13.2719304 -0.961354E-04  0.230E-02    1.05       1.3  T
   5    -13.2719423 -0.119114E-04  0.428E-03    1.05       6.7  T
   6    -13.2719420  0.299024E-06  0.611E-03    1.05       4.7  T
   7    -13.2719424 -0.392045E-06  0.158E-03    1.05      18.3  T
   8    -13.2719424 -0.889261E-08  0.693E-04    1.05      41.7  T
   9    -13.2719424 -0.625407E-08  0.311E-04    1.05      92.8  T
     SCC iter.                  ...        0 min,  0.003 sec
     gradient                   ...        0 min,  0.001 sec
 * total energy  :   -12.9438585 Eh     change       -0.3119585E-04 Eh
   gradient norm :     0.0030146 Eh/α   predicted    -0.2498074E-04 ( -19.92%)
   displ. norm   :     0.0545251 α      lambda       -0.4228984E-04
   maximum displ.:     0.0336680 α      in ANC's #7, #2, #9, ...

........................................................................
.............................. CYCLE   37 ..............................
........................................................................
   1    -13.2707909 -0.132708E+02  0.810E-02    1.05       0.0  T
[...]
   displ. norm   :     0.0231300 α      lambda       -0.7330611E-05
   maximum displ.:     0.0123544 α      in ANC's #7, #11, #9, ...

........................................................................
.............................. CYCLE   70 ..............................
........................................................................
   1    -13.2719608 -0.132720E+02  0.408E-02    1.06       0.0  T
   2    -13.2719606  0.244810E-06  0.248E-02    1.06       1.2  T
   3    -13.2719467  0.138761E-04  0.268E-02    1.06       1.1  T
   4    -13.2719604 -0.137110E-04  0.511E-03    1.06       5.6  T
   5    -13.2719609 -0.472480E-06  0.182E-03    1.06      15.9  T
   6    -13.2719609 -0.595168E-08  0.141E-03    1.06      20.5  T
   7    -13.2719609 -0.205478E-07  0.355E-04    1.06      81.2  T
   8    -13.2719609 -0.673701E-10  0.228E-04    1.06     126.7  T
     SCC iter.                  ...        0 min,  0.002 sec
     gradient                   ...        0 min,  0.001 sec
 * total energy  :   -12.9445392 Eh     change       -0.6287324E-05 Eh
   gradient norm :     0.0008936 Eh/α   predicted    -0.3668273E-05 ( -41.66%)
   displ. norm   :     0.0225384 α      lambda       -0.2908150E-05
   maximum displ.:     0.0108827 α      in ANC's #8, #9, #7, ...

........................................................................
.............................. CYCLE   71 ..............................
........................................................................
   1    -13.2718236 -0.132718E+02  0.362E-02    1.06       0.0  T
   2    -13.2718236  0.670385E-07  0.221E-02    1.06       1.3  T
   3    -13.2718194  0.420327E-05  0.164E-02    1.06       1.8  T
   4    -13.2718235 -0.417833E-05  0.329E-03    1.06       8.8  T
   5    -13.2718236 -0.664058E-07  0.232E-03    1.06      12.4  T
   6    -13.2718236  0.336876E-07  0.258E-03    1.06      11.2  T
   7    -13.2718237 -0.111859E-06  0.360E-04    1.06      80.3  T
   8    -13.2718237 -0.161827E-08  0.232E-04    1.06     124.3  T
     SCC iter.                  ...        0 min,  0.002 sec
     gradient                   ...        0 min,  0.001 sec
 * total energy  :   -12.9445418 Eh     change       -0.2654721E-05 Eh
   gradient norm :     0.0004460 Eh/α   predicted    -0.1453488E-05 ( -45.25%)
   displ. norm   :     0.0375462 α      lambda       -0.2414877E-05
   maximum displ.:     0.0173860 α      in ANC's #9, #7, #6, ...

   *** GEOMETRY OPTIMIZATION CONVERGED AFTER 71 ITERATIONS ***

------------------------------------------------------------------------
 total energy gain   :        -0.8677896 Eh     -544.5462 kcal/mol
 total RMSD          :         2.4734815 a0        1.3089 Å
 total power (kW/mol):       -32.0898786 (step)-6490.0072 (real)
------------------------------------------------------------------------

 ANCopt (total)                0 d,  0 h,  0 min,  0.351 sec
 optimizer setup                ...        0 min,  0.000 sec (  0.008%)
 model hessian                  ...        0 min,  0.001 sec (  0.165%)
 ANC generation                 ...        0 min,  0.000 sec (  0.106%)
 coordinate transformation      ...        0 min,  0.000 sec (  0.063%)
 single point calculation       ...        0 min,  0.343 sec ( 97.592%)
 optimization log               ...        0 min,  0.002 sec (  0.650%)
 hessian update                 ...        0 min,  0.002 sec (  0.568%)
 rational function              ...        0 min,  0.002 sec (  0.491%)

================
 final structure:
================
12
 xtb: 6.5.1 (conda-forge)
Be           0.77505659054759        0.01617778821998        0.07956533313740
B            1.24727510296520        1.49412197988959        0.81656543519680
B            1.70966979112140        1.38800897985363        2.25348420428322
B            1.47459332473886       -0.26335684357381        1.62688967146786
C            1.36003061086315        0.20620831815560        3.04315282308985
C            0.88843519513930       -0.19392113029968        4.27194659849461
C            0.53678595456785       -0.54017661898779        5.37646131641889
H            0.21605414505266       -0.85393609708656        6.32521107103336
H            2.01461500426870        1.43064248884225        6.16004313768243
H            2.43652931667136        1.97084069738747        6.53921233216577
H            0.65661118511805        0.76682479250700        8.52268673785613
H            0.23634377893147        0.40885964497729        9.07178133909736

 Bond Distances (Angstroems)
 ---------------------------
Be1-B2=1.7177        Be1-B4=1.7210        B2-Be1=1.7177        B2-B3=1.5132         B2-B4=1.9486         B3-B2=1.5132         
B3-B4=1.7818         B3-C5=1.4637         B4-Be1=1.7210        B4-B2=1.9486         B4-B3=1.7818         B4-C5=1.4965         
C5-B3=1.4637         C5-B4=1.4965         C5-C6=1.3757         C6-C5=1.3757         C6-C7=1.2098         C7-C6=1.2098         
C7-H8=1.0495         H8-C7=1.0495         H9-H10=0.7833        H10-H9=0.7833        H11-H12=0.7786       H12-H11=0.7786       
 H  H  Rav=0.7810 sigma=0.0023  Rmin=0.7786  Rmax=0.7833     2
 B  Be Rav=1.7193 sigma=0.0016  Rmin=1.7177  Rmax=1.7210     2
 B  B  Rav=1.7479 sigma=0.1794  Rmin=1.5132  Rmax=1.9486     3
 C  H  Rav=1.0495 sigma=0.0000  Rmin=1.0495  Rmax=1.0495     1
 C  B  Rav=1.4801 sigma=0.0164  Rmin=1.4637  Rmax=1.4965     2
 C  C  Rav=1.2927 sigma=0.0830  Rmin=1.2098  Rmax=1.3757     2

 selected bond angles (degree)
 --------------------
B4-Be1-B2= 69.04               B3-B2-Be1=115.54               B4-B2-Be1= 55.56               B4-B2-B3= 60.41                
B4-B3-B2= 71.99                C5-B3-B2=119.73                C5-B3-B4= 53.84                B2-B4-Be1= 55.40               
B3-B4-Be1=102.67               B3-B4-B2= 47.60                C5-B4-Be1=140.25               C5-B4-B2= 95.83                
C5-B4-B3= 52.16                B4-C5-B3= 74.01                C6-C5-B3=143.00                C6-C5-B4=141.29                
C7-C6-C5=176.79                H8-C7-C6=178.76                

 selected dihedral angles (degree)
 ---------------------------------
B3-B2-Be1-B4=352.38           B4-B3-B2-Be1=  7.22           C5-B3-B2-Be1=341.42           C5-B3-B2-B4=334.19            
B3-B4-Be1-B2=  5.98           C5-B4-Be1-B2= 50.48           Be1-B4-B2-B3=172.09           B3-B4-B2-Be1=187.91           
C5-B4-B2-Be1=209.73           C5-B4-B2-B3= 21.82            Be1-B4-B3-B2=353.33           Be1-B4-B3-C5=145.41           
B2-B4-B3-C5=152.08            C5-B4-B3-B2=207.92            B4-C5-B3-B2= 30.85            C6-C5-B3-B2=225.27            
C6-C5-B3-B4=194.42            B3-C5-B4-Be1=299.99           B3-C5-B4-B2=339.66            C6-C5-B4-Be1=106.13           
C6-C5-B4-B2=145.79            C6-C5-B4-B3=166.13            C7-C6-C5-B3=277.32            C7-C6-C5-B4=119.83            
H8-C7-C6-C5=212.80            

 CMA Distance (Angstroems)
 ---------------------------
R(CMA):  3.2305
           -------------------------------------------------
          |                Final Singlepoint                |
           -------------------------------------------------

          ...................................................
          :                      SETUP                      :
          :.................................................:
          :  # basis functions                  33          :
          :  # atomic orbitals                  33          :
          :  # shells                           19          :
          :  # electrons                        28          :
          :  max. iterations                   250          :
          :  Hamiltonian                  GFN2-xTB          :
          :  restarted?                      false          :
          :  GBSA solvation                  false          :
          :  PC potential                    false          :
          :  electronic temp.          300.0000000     K    :
          :  accuracy                    1.0000000          :
          :  -> integral cutoff          0.2500000E+02      :
          :  -> integral neglect         0.1000000E-07      :
          :  -> SCF convergence          0.1000000E-05 Eh   :
          :  -> wf. convergence          0.1000000E-03 e    :
          :  Broyden damping             0.4000000          :
          ...................................................

 iter      E             dE          RMSdq      gap      omega  full diag
   1    -13.2718237 -0.132718E+02  0.886E-05    1.06       0.0  T
   2    -13.2718237  0.355868E-09  0.135E-04    1.06     213.8  T
   3    -13.2718237 -0.339181E-09  0.722E-05    1.06     399.7  T

   *** convergence criteria satisfied after 3 iterations ***

         #    Occupation            Energy/Eh            Energy/eV
      -------------------------------------------------------------
         1        2.0000           -0.5533879             -15.0585
       ...           ...                  ...                  ...
         8        2.0000           -0.3869365             -10.5291
         9        2.0000           -0.3754738             -10.2172
        10        2.0000           -0.3462303              -9.4214
        11        2.0000           -0.3144416              -8.5564
        12        2.0000           -0.3124930              -8.5034
        13        2.0000           -0.2869206              -7.8075
        14        2.0000           -0.2583801              -7.0309 (HOMO)
        15                         -0.2194339              -5.9711 (LUMO)
        16                         -0.1762741              -4.7967
        17                         -0.1519652              -4.1352
        18                         -0.1291821              -3.5152
        19                         -0.1183102              -3.2194
       ...                                ...                  ...
        33                          1.4934124              40.6378
      -------------------------------------------------------------
                  HL-Gap            0.0389462 Eh            1.0598 eV
             Fermi-level           -0.2389070 Eh           -6.5010 eV

 SCC (total)                   0 d,  0 h,  0 min,  0.002 sec
 SCC setup                      ...        0 min,  0.000 sec (  3.176%)
 Dispersion                     ...        0 min,  0.000 sec (  7.331%)
 classical contributions        ...        0 min,  0.000 sec (  3.693%)
 integral evaluation            ...        0 min,  0.000 sec (  7.569%)
 iterations                     ...        0 min,  0.001 sec ( 39.242%)
 molecular gradient             ...        0 min,  0.001 sec ( 36.570%)
 printout                       ...        0 min,  0.000 sec (  1.819%)

         :::::::::::::::::::::::::::::::::::::::::::::::::::::
         ::                     SUMMARY                     ::
         :::::::::::::::::::::::::::::::::::::::::::::::::::::
         :: total energy             -12.944541811125 Eh    ::
         :: gradient norm              0.000445946125 Eh/a0 ::
         :: HOMO-LUMO gap              1.059779064188 eV    ::
         ::.................................................::
         :: SCC energy               -13.271823680570 Eh    ::
         :: -> isotropic ES           -0.003032855036 Eh    ::
         :: -> anisotropic ES          0.019304726251 Eh    ::
         :: -> anisotropic XC          0.004315288970 Eh    ::
         :: -> dispersion             -0.005636285046 Eh    ::
         :: repulsion energy           0.327293588583 Eh    ::
         :: add. restraining           0.000000000000 Eh    ::
         :: total charge              -0.000000000000 e     ::
         :::::::::::::::::::::::::::::::::::::::::::::::::::::

           -------------------------------------------------
          |                Property Printout                |
           -------------------------------------------------

    * Orbital Energies and Occupations

         #    Occupation            Energy/Eh            Energy/eV
      -------------------------------------------------------------
         1        2.0000           -0.5533879             -15.0585
         2        2.0000           -0.5148000             -14.0084
         3        2.0000           -0.4643077             -12.6345
         4        2.0000           -0.4524612             -12.3121
         5        2.0000           -0.4387669             -11.9395
         6        2.0000           -0.4275816             -11.6351
         7        2.0000           -0.3939593             -10.7202
         8        2.0000           -0.3869365             -10.5291
         9        2.0000           -0.3754738             -10.2172
        10        2.0000           -0.3462303              -9.4214
        11        2.0000           -0.3144416              -8.5564
        12        2.0000           -0.3124930              -8.5034
        13        2.0000           -0.2869206              -7.8075
        14        2.0000           -0.2583801              -7.0309 (HOMO)
        15                         -0.2194339              -5.9711 (LUMO)
        16                         -0.1762741              -4.7967
        17                         -0.1519652              -4.1352
        18                         -0.1291821              -3.5152
        19                         -0.1183102              -3.2194
        20                         -0.0781702              -2.1271
        21                         -0.0197255              -0.5368
        22                         -0.0094645              -0.2575
        23                          0.0536852               1.4608
        24                          0.1327440               3.6121
        25                          0.1505407               4.0964
       ...                                ...                  ...
        33                          1.4934124              40.6378
      -------------------------------------------------------------
                  HL-Gap            0.0389462 Eh            1.0598 eV
             Fermi-level           -0.2389070 Eh           -6.5010 eV

     #   Z          covCN         q      C6AA      α(0)
     1   4 Be       1.834     0.357    15.262     9.045
     2   5 B        2.582    -0.076    23.873     8.324
     3   5 B        2.802     0.060    20.444     7.556
     4   5 B        3.409    -0.022    21.797     7.780
     5   6 C        2.795    -0.142    31.631     9.213
     6   6 C        1.962    -0.046    32.311     9.179
     7   6 C        1.910    -0.145    35.216     9.584
     8   1 H        0.928     0.023     2.682     2.561
     9   1 H        0.792     0.017     2.840     2.649
    10   1 H        0.792    -0.025     3.602     2.984
    11   1 H        0.808     0.008     2.980     2.711
    12   1 H        0.808    -0.008     3.263     2.837

 Mol. C6AA /au·bohr⁶  :       1898.963824
 Mol. C8AA /au·bohr⁸  :      55475.806274
 Mol. α(0) /au        :         74.422726


Wiberg/Mayer (AO) data.
largest (>0.10) Wiberg bond orders for each atom

 ---------------------------------------------------------------------------
     #   Z sym  total        # sym  WBO       # sym  WBO       # sym  WBO
 ---------------------------------------------------------------------------
     1   4 Be   2.084 --     2 B    1.002     4 B    0.957
     2   5 B    3.231 --     3 B    1.407     1 Be   1.002     4 B    0.577
                             5 C    0.170
     3   5 B    3.465 --     2 B    1.407     5 C    1.276     4 B    0.572
                             7 C    0.110
     4   5 B    3.400 --     5 C    1.190     1 Be   0.957     2 B    0.577
                             3 B    0.572
     5   6 C    3.944 --     3 B    1.276     6 C    1.237     4 B    1.190
                             2 B    0.170
     6   6 C    3.972 --     7 C    2.679     5 C    1.237
     7   6 C    3.956 --     6 C    2.679     8 H    0.976     3 B    0.110
     8   1 H    0.998 --     7 C    0.976
     9   1 H    1.000 --    10 H    0.989
    10   1 H    0.999 --     9 H    0.989
    11   1 H    1.000 --    12 H    0.998
    12   1 H    1.000 --    11 H    0.998
 ---------------------------------------------------------------------------

Topologies differ in total number of bonds
Writing topology from bond orders to xtbtopo.mol

molecular dipole:
                 x           y           z       tot (Debye)
 q only:       -0.149      -0.007      -2.395
   full:       -0.111      -0.427      -2.187       5.670
molecular quadrupole (traceless):
                xx          xy          yy          xz          yz          zz
 q only:        9.915      -0.261      10.156      -6.376       1.042     -20.071
  q+dip:        5.839       1.399       2.846      -5.145      -1.035      -8.685
   full:       11.061       0.990       1.127      -5.758       1.465     -12.187
Note: The following floating-point exceptions are signalling: IEEE_UNDERFLOW_FLAG
normal termination of xtb

           -------------------------------------------------
          |                Geometry Summary                 |
           -------------------------------------------------

      molecular mass/u    :       82.5171787
   center of mass at/Å    :        1.1385711       0.3135092       2.9186713
  moments of inertia/u·Å² :        0.5670433E+02   0.3601831E+03   0.4010625E+03
rotational constants/cm⁻¹ :        0.2972900E+00   0.4680295E-01   0.4203244E-01

 * 8 selected distances

     #   Z          #   Z                                           value/Å
     1   4 Be       2   5 B                                       1.7176959
     2   5 B        3   5 B                                       1.5132101
     1   4 Be       4   5 B                                       1.7209603 (max)
     3   5 B        5   6 C                                       1.4637204
     4   5 B        5   6 C                                       1.4964684
     6   6 C        7   6 C                                       1.2097533
     9   1 H       10   1 H                                       0.7833232
    11   1 H       12   1 H                                       0.7786326 (min)

 * 5 distinct bonds (by element types)

   Z      Z             #   av. dist./Å        max./Å        min./Å
   1 H    1 H           2     0.7809779     0.7833232     0.7786326
   4 Be   5 B           2     1.7193281     1.7209603     1.7176959
   5 B    5 B           1     1.5132101     1.5132101     1.5132101
   5 B    6 C           2     1.4800944     1.4964684     1.4637204
   6 C    6 C           1     1.2097533     1.2097533     1.2097533


optimized geometry written to: xtbopt.xyz


           -------------------------------------------------
          | TOTAL ENERGY              -12.944541811125 Eh   |
          | GRADIENT NORM               0.000445946125 Eh/α |
          | HOMO-LUMO GAP               1.059779064188 eV   |
           -------------------------------------------------
########################################################################
[WARNING] Runtime exception occurred
-3- restart_readRestart: Dimension missmatch in restart file.
-2- restart_readRestart: Multiplicity missmatch in restart file.
-1- restart_readRestart: Number of electron missmatch in restart file.
########################################################################

------------------------------------------------------------------------
 * finished run on 2025/06/07 at 03:27:44.943     
------------------------------------------------------------------------
 total:
 * wall-time:     0 d,  0 h,  0 min,  0.399 sec
 *  cpu-time:     0 d,  0 h,  0 min,  5.475 sec
 * ratio c/w:    13.714 speedup
 SCF:
 * wall-time:     0 d,  0 h,  0 min,  0.043 sec
 *  cpu-time:     0 d,  0 h,  0 min,  0.611 sec
 * ratio c/w:    14.251 speedup
 ANC optimizer:
 * wall-time:     0 d,  0 h,  0 min,  0.353 sec
 *  cpu-time:     0 d,  0 h,  0 min,  4.831 sec
 * ratio c/w:    13.673 speedup

