      -----------------------------------------------------------      
     |                   =====================                   |     
     |                           x T B                           |     
     |                   =====================                   |     
     |                         S. Grimme                         |     
     |          Mulliken Center for Theoretical Chemistry        |     
     |                    University of Bonn                     |     
      -----------------------------------------------------------      

   * xtb version 6.5.1 (conda-forge) compiled by 'runner@Mac-1657629245115.local' on 2022-07-12

   xtb is free software: you can redistribute it and/or modify it under
   the terms of the GNU Lesser General Public License as published by
   the Free Software Foundation, either version 3 of the License, or
   (at your option) any later version.
   
   xtb is distributed in the hope that it will be useful,
   but WITHOUT ANY WARRANTY; without even the implied warranty of
   MERCHANTABILITY or FITNESS FOR A PARTICULAR PURPOSE.  See the
   GNU Lesser General Public License for more details.
   
   Cite this work as:
   * C. Bannwarth, E. Caldeweyher, S. Ehlert, A. Hansen, P. Pracht,
     J. Seibert, S. Spicher, S. Grimme, WIREs Comput. Mol. Sci., 2020, 11,
     e01493. DOI: 10.1002/wcms.1493
   
   for GFN2-xTB:
   * C. Bannwarth, S. Ehlert and S. Grimme., J. Chem. Theory Comput., 2019,
     15, 1652-1671. DOI: 10.1021/acs.jctc.8b01176
   for GFN1-xTB:
   * S. Grimme, C. Bannwarth, P. Shushkov, J. Chem. Theory Comput., 2017,
     13, 1989-2009. DOI: 10.1021/acs.jctc.7b00118
   for GFN0-xTB:
   * P. Pracht, E. Caldeweyher, S. Ehlert, S. Grimme, ChemRxiv, 2019, preprint.
     DOI: 10.26434/chemrxiv.8326202.v1
   for GFN-FF:
   * S. Spicher and S. Grimme, Angew. Chem. Int. Ed., 2020, 59, 15665-15673.
     DOI: 10.1002/anie.202004239
   
   for ALPB and GBSA implicit solvation:
   * S. Ehlert, M. Stahn, S. Spicher, S. Grimme, J. Chem. Theory Comput.,
     2021, 17, 4250-4261. DOI: 10.1021/acs.jctc.1c00471
   
   for DFT-D4:
   * E. Caldeweyher, C. Bannwarth and S. Grimme, J. Chem. Phys., 2017,
     147, 034112. DOI: 10.1063/1.4993215
   * E. Caldeweyher, S. Ehlert, A. Hansen, H. Neugebauer, S. Spicher,
     C. Bannwarth and S. Grimme, J. Chem. Phys., 2019, 150, 154122.
     DOI: 10.1063/1.5090222
   * E. Caldeweyher, J.-M. Mewes, S. Ehlert and S. Grimme, Phys. Chem. Chem. Phys.
     2020, 22, 8499-8512. DOI: 10.1039/D0CP00502A
   
   for sTDA-xTB:
   * S. Grimme and C. Bannwarth, J. Chem. Phys., 2016, 145, 054103.
     DOI: 10.1063/1.4959605
   
   in the mass-spec context:
   * V. Asgeirsson, C. Bauer and S. Grimme, Chem. Sci., 2017, 8, 4879.
     DOI: 10.1039/c7sc00601b
   * J. Koopman and S. Grimme, ACS Omega 2019, 4, 12, 15120-15133.
     DOI: 10.1021/acsomega.9b02011
   
   for metadynamics refer to:
   * S. Grimme, J. Chem. Theory Comput., 2019, 155, 2847-2862
     DOI: 10.1021/acs.jctc.9b00143
   
   for SPH calculations refer to:
   * S. Spicher and S. Grimme, J. Chem. Theory Comput., 2021, 17, 1701-1714
     DOI: 10.1021/acs.jctc.0c01306
   
   with help from (in alphabetical order)
   P. Atkinson, C. Bannwarth, F. Bohle, G. Brandenburg, E. Caldeweyher
   M. Checinski, S. Dohm, S. Ehlert, S. Ehrlich, I. Gerasimov, C. Hölzer
   A. Katbashev, J. Koopman, C. Lavigne, S. Lehtola, F. März, M. Müller,
   F. Musil, H. Neugebauer, J. Pisarek, C. Plett, P. Pracht, F. Pultar,
   J. Seibert, P. Shushkov, S. Spicher, M. Stahn, M. Steiner, T. Strunk,
   J. Stückrath, T. Rose, and J. Unsleber
   
 * started run on 2025/06/07 at 03:27:44.046     

           -------------------------------------------------
          |                Calculation Setup                |
           -------------------------------------------------

          program call               : xtb B3BeC3H4.xyz --gfn 2 --opt
          coordinate file            : B3BeC3H4.xyz
          omp threads                :                    16

   ID    Z sym.   atoms
    1    4 Be     1
    2    5 B      2-4
    3    6 C      5-7
    4    1 H      8-11

molecular fragmentation (1/2 indicates fragments):
12222222222
# atoms in fragment 1/2:     1    10
 fragment masses (1/2) :        9.01       72.50
CMA distance (Bohr)    :   7.136
constraining FC (au)   :  0.0500

           -------------------------------------------------
          |                 G F N 2 - x T B                 |
           -------------------------------------------------

        Reference                      10.1021/acs.jctc.8b01176
      * Hamiltonian:
        H0-scaling (s, p, d)           1.850000    2.230000    2.230000
        zeta-weighting                 0.500000
      * Dispersion:
        s8                             2.700000
        a1                             0.520000
        a2                             5.000000
        s9                             5.000000
      * Repulsion:
        kExp                           1.500000    1.000000
        rExp                           1.000000
      * Coulomb:
        alpha                          2.000000
        third order                    shell-resolved
        anisotropic                    true
        a3                             3.000000
        a5                             4.000000
        cn-shift                       1.200000
        cn-exp                         4.000000
        max-rad                        5.000000


          ...................................................
          :                      SETUP                      :
          :.................................................:
          :  # basis functions                  32          :
          :  # atomic orbitals                  32          :
          :  # shells                           18          :
          :  # electrons                        27          :
          :  max. iterations                   250          :
          :  Hamiltonian                  GFN2-xTB          :
          :  restarted?                      false          :
          :  GBSA solvation                  false          :
          :  PC potential                    false          :
          :  electronic temp.          300.0000000     K    :
          :  accuracy                    1.0000000          :
          :  -> integral cutoff          0.2500000E+02      :
          :  -> integral neglect         0.1000000E-07      :
          :  -> SCF convergence          0.1000000E-05 Eh   :
          :  -> wf. convergence          0.1000000E-03 e    :
          :  Broyden damping             0.4000000          :
          ...................................................

 iter      E             dE          RMSdq      gap      omega  full diag
   1     10.2046603  0.102047E+02  0.220E+01    0.31       0.0  T
   2      5.2041374 -0.500052E+01  0.282E+01    0.76       1.0  T
   3      3.8322449 -0.137189E+01  0.198E+01    1.31       1.0  T
   4      0.0895322 -0.374271E+01  0.206E+01    0.73       1.0  T
   5     -6.0355257 -0.612506E+01  0.157E+01    0.85       1.0  T
   6     -7.7989510 -0.176343E+01  0.125E+01    0.59       1.0  T
   7     -9.0402588 -0.124131E+01  0.109E+01    0.74       1.0  T
   8     -9.0875379 -0.472791E-01  0.102E+01    0.75       1.0  T
   9     -9.1077880 -0.202501E-01  0.101E+01    0.72       1.0  T
  10     -9.1904323 -0.826442E-01  0.101E+01    0.77       1.0  T
  11     -9.8556948 -0.665263E+00  0.926E+00    0.18       1.0  T
  12    -10.9009434 -0.104525E+01  0.560E+00    0.69       1.0  T
  13      8.4690228  0.193700E+02  0.221E+01    0.50       1.0  T
  14     -4.5843457 -0.130534E+02  0.124E+01    0.46       1.0  T
  15     -9.2125061 -0.462816E+01  0.102E+01    0.42       1.0  T
  16    -11.2010820 -0.198858E+01  0.648E+00    0.43       1.0  T
  17    -11.5732699 -0.372188E+00  0.416E+00    0.41       1.0  T
  18    -11.5769933 -0.372335E-02  0.436E+00    0.40       1.0  T
  19    -10.4018603  0.117513E+01  0.906E+00    0.39       1.0  T
  20    -11.4177166 -0.101586E+01  0.537E+00    0.40       1.0  T
  21    -10.9705513  0.447165E+00  0.375E+00    0.45       1.0  T
  22    -11.4798287 -0.509277E+00  0.388E+00    0.35       1.0  T
  23    -11.4299015  0.499272E-01  0.422E+00    0.34       1.0  T
  24    -11.0174260  0.412476E+00  0.442E+00    0.41       1.0  T
  25    -11.0593328 -0.419069E-01  0.429E+00    0.38       1.0  T
  26    -11.0669964 -0.766362E-02  0.397E+00    0.39       1.0  T
  27    -11.3097968 -0.242800E+00  0.372E+00    0.36       1.0  T
  28    -11.3253579 -0.155611E-01  0.369E+00    0.36       1.0  T
  29    -11.3322417 -0.688381E-02  0.367E+00    0.36       1.0  T
  30    -11.3703132 -0.380715E-01  0.357E+00    0.35       1.0  T
  31    -11.4064454 -0.361322E-01  0.352E+00    0.35       1.0  T
  32    -11.4175262 -0.110808E-01  0.350E+00    0.34       1.0  T
  33    -11.4132184  0.430784E-02  0.353E+00    0.34       1.0  T
  34    -11.4944149 -0.811966E-01  0.334E+00    0.33       1.0  T
  35    -11.4947761 -0.361217E-03  0.336E+00    0.33       1.0  T
  36    -11.4728979  0.218782E-01  0.351E+00    0.34       1.0  T
  37    -11.4788217 -0.592379E-02  0.344E+00    0.33       1.0  T
  38    -11.5323223 -0.535006E-01  0.296E+00    0.33       1.0  T
  39    -11.5314199  0.902397E-03  0.281E+00    0.33       1.0  T
  40    -11.5963167 -0.648967E-01  0.243E+00    0.32       1.0  T
  41    -11.5928640  0.345264E-02  0.247E+00    0.32       1.0  T
  42    -11.6019081 -0.904413E-02  0.254E+00    0.32       1.0  T
  43    -11.6025377 -0.629571E-03  0.256E+00    0.32       1.0  T
  44    -11.6020452  0.492522E-03  0.252E+00    0.32       1.0  T
  45    -11.6035169 -0.147170E-02  0.219E+00    0.31       1.0  T
  46    -11.6074908 -0.397392E-02  0.197E+00    0.31       1.0  T
  47    -11.6101542 -0.266339E-02  0.168E+00    0.30       1.0  T
  48    -11.6097113  0.442931E-03  0.160E+00    0.30       1.0  T
  49    -11.6099925 -0.281217E-03  0.126E+00    0.30       1.0  T
  50    -11.6098893  0.103228E-03  0.104E+00    0.29       1.0  T
  51    -11.6088177  0.107155E-02  0.972E-01    0.29       1.0  T
  52    -11.6092414 -0.423730E-03  0.835E-01    0.29       1.0  T
  53    -11.6100222 -0.780721E-03  0.676E-01    0.29       1.0  T
  54    -11.6099973  0.248724E-04  0.558E-01    0.29       1.0  T
  55    -11.6101585 -0.161228E-03  0.424E-01    0.29       1.0  T
  56    -11.6098245  0.334018E-03  0.376E-01    0.29       1.0  T
  57    -11.6098524 -0.279044E-04  0.368E-01    0.29       1.0  T
  58    -11.6102342 -0.381758E-03  0.276E-01    0.29       1.0  T
  59    -11.6103518 -0.117681E-03  0.230E-01    0.29       1.0  T
  60    -11.6104821 -0.130313E-03  0.194E-01    0.29       1.0  T
  61    -11.6107135 -0.231356E-03  0.141E-01    0.29       1.0  T
  62    -11.6108020 -0.884747E-04  0.111E-01    0.29       1.0  T
  63    -11.6108643 -0.623276E-04  0.818E-02    0.29       1.0  T
  64    -11.6108876 -0.232452E-04  0.615E-02    0.29       1.0  T
  65    -11.6108915 -0.395682E-05  0.495E-02    0.29       1.0  T
  66    -11.6108920 -0.516888E-06  0.382E-02    0.29       1.0  T
  67    -11.6108923 -0.257301E-06  0.257E-02    0.29       1.2  T
  68    -11.6108924 -0.118677E-06  0.144E-02    0.29       2.1  T
  69    -11.6108923  0.904004E-07  0.953E-03    0.29       3.2  T
  70    -11.6108923  0.581820E-07  0.744E-03    0.29       4.1  T
  71    -11.6108924 -0.172399E-06  0.354E-03    0.29       8.5  T
  72    -11.6108923  0.117922E-06  0.353E-03    0.29       8.5  T
  73    -11.6108925 -0.143077E-06  0.130E-03    0.29      23.1  T
  74    -11.6108924  0.103286E-07  0.136E-03    0.29      22.2  T
  75    -11.6108925 -0.144467E-07  0.452E-04    0.29      66.7  T
  76    -11.6108925  0.335489E-08  0.492E-04    0.29      61.2  T

   *** convergence criteria satisfied after 76 iterations ***

         #    Occupation            Energy/Eh            Energy/eV
      -------------------------------------------------------------
         1        2.0000           -0.6150480             -16.7363
       ...           ...                  ...                  ...
         8        2.0000           -0.3258739              -8.8675
         9        2.0000           -0.3115728              -8.4783
        10        2.0000           -0.3004783              -8.1764
        11        2.0000           -0.2952543              -8.0343
        12        2.0000           -0.2756384              -7.5005
        13        1.9948           -0.2648203              -7.2061
        14        1.0013           -0.2548194              -6.9340 (HOMO)
        15        0.0038           -0.2442604              -6.6467 (LUMO)
        16                         -0.2305958              -6.2748
        17                         -0.2240294              -6.0962
        18                         -0.2118063              -5.7635
        19                         -0.2082929              -5.6679
       ...                                ...                  ...
        32                          0.4715684              12.8320
      -------------------------------------------------------------
                  HL-Gap            0.0105590 Eh            0.2873 eV
             Fermi-level           -0.2546799 Eh           -6.9302 eV

 SCC (total)                   0 d,  0 h,  0 min,  0.051 sec
 SCC setup                      ...        0 min,  0.000 sec (  0.327%)
 Dispersion                     ...        0 min,  0.000 sec (  0.363%)
 classical contributions        ...        0 min,  0.000 sec (  0.162%)
 integral evaluation            ...        0 min,  0.000 sec (  0.399%)
 iterations                     ...        0 min,  0.050 sec ( 97.561%)
 molecular gradient             ...        0 min,  0.001 sec (  1.069%)
 printout                       ...        0 min,  0.000 sec (  0.100%)

         :::::::::::::::::::::::::::::::::::::::::::::::::::::
         ::                     SUMMARY                     ::
         :::::::::::::::::::::::::::::::::::::::::::::::::::::
         :: total energy             -11.554521843900 Eh    ::
         :: gradient norm              0.334462629285 Eh/a0 ::
         :: HOMO-LUMO gap              0.287325587459 eV    ::
         ::.................................................::
         :: SCC energy               -11.610892452971 Eh    ::
         :: -> isotropic ES           -0.048633661025 Eh    ::
         :: -> anisotropic ES          0.010033986537 Eh    ::
         :: -> anisotropic XC         -0.011641267520 Eh    ::
         :: -> dispersion             -0.012016318564 Eh    ::
         :: repulsion energy           0.056403603113 Eh    ::
         :: add. restraining           0.000000000000 Eh    ::
         :: total charge               0.000000000000 e     ::
         :::::::::::::::::::::::::::::::::::::::::::::::::::::

      ----------------------------------------------------------- 
     |                   =====================                   |
     |                        A N C O P T                        |
     |                   =====================                   |
     |               Approximate Normal Coordinate               |
     |                Rational Function Optimizer                |
      ----------------------------------------------------------- 

          ...................................................
          :                      SETUP                      :
          :.................................................:
          :   optimization level            normal          :
          :   max. optcycles                   200          :
          :   ANC micro-cycles                  20          :
          :   degrees of freedom                27          :
          :.................................................:
          :   RF solver                   davidson          :
          :   write xtbopt.log                true          :
          :   linear?                        false          :
          :   energy convergence         0.5000000E-05 Eh   :
          :   grad. convergence          0.1000000E-02 Eh/α :
          :   maximium RF displ.         1.0000000          :
          :   Hlow (freq-cutoff)         0.1000000E-01      :
          :   Hmax (freq-cutoff)         5.0000000          :
          :   S6 in model hess.         20.0000000          :
          ...................................................

generating ANC from model Hessian ...
Using Lindh-Hessian (1995)
 Shifting diagonal of input Hessian by    1.3030432498462915E-002
 Lowest  eigenvalues of input Hessian
    0.010000    0.012524    0.012856    0.000000    0.000000    0.000000
    0.000000    0.000000    0.000000    0.013081    0.014012    0.014889
    0.015856    0.017065    0.022671    0.024770    0.028049    0.031989
 Highest eigenvalues
    0.223198    0.250659    0.268064    0.283352    0.309334    0.345753


........................................................................
.............................. CYCLE    1 ..............................
........................................................................
   1    -11.6108925 -0.116109E+02  0.135E-04    0.29       0.0  T
   2    -11.6108925  0.195721E-08  0.272E-04    0.29     110.8  T
   3    -11.6108925  0.269418E-09  0.297E-04    0.29     101.5  T
     SCC iter.                  ...        0 min,  0.002 sec
     gradient                   ...        0 min,  0.000 sec
 * total energy  :   -11.5545218 Eh     change       -0.1281876E-08 Eh
   gradient norm :     0.3339150 Eh/α   predicted     0.0000000E+00 (-100.00%)
   displ. norm   :     0.8272312 α      lambda       -0.2667822E+00
   maximum displ.:     0.3903566 α      in ANC's #9, #23, #13, ...

........................................................................
.............................. CYCLE    2 ..............................
........................................................................
   1    -11.7364710 -0.117365E+02  0.294E+00    0.01       0.0  T
   2    -10.9348184  0.801653E+00  0.699E+00    0.64       1.0  T
   3    -11.7392869 -0.804468E+00  0.196E+00    0.41       1.0  T
   4    -11.2685381  0.470749E+00  0.456E+00    0.35       1.0  T
   5    -11.6431345 -0.374596E+00  0.258E+00    0.22       1.0  T
   6    -11.5175127  0.125622E+00  0.353E+00    0.18       1.0  T
   7    -11.7876945 -0.270182E+00  0.121E+00    0.30       1.0  T
   8    -11.7929398 -0.524527E-02  0.912E-01    0.28       1.0  T
   9    -11.7980240 -0.508420E-02  0.884E-01    0.23       1.0  T
  10    -11.8046182 -0.659426E-02  0.607E-01    0.21       1.0  T
  11    -11.8029986  0.161963E-02  0.597E-01    0.20       1.0  T
  12    -11.8029641  0.345340E-04  0.556E-01    0.17       1.0  T
  13    -11.8086178 -0.565373E-02  0.272E-01    0.18       1.0  T
  14    -11.8090271 -0.409289E-03  0.273E-01    0.18       1.0  T
  15    -11.8090225  0.454438E-05  0.268E-01    0.18       1.0  T
  16    -11.8097143 -0.691803E-03  0.157E-01    0.16       1.0  T
  17    -11.8098878 -0.173498E-03  0.120E-01    0.16       1.0  T
  18    -11.8099990 -0.111167E-03  0.820E-02    0.16       1.0  T
  19    -11.8100723 -0.732735E-04  0.417E-02    0.16       1.0  T
  20    -11.8100728 -0.510185E-06  0.403E-02    0.16       1.0  T
  21    -11.8100915 -0.186831E-04  0.151E-02    0.16       2.0  T
  22    -11.8100919 -0.447385E-06  0.860E-03    0.16       3.5  T
  23    -11.8100924 -0.524259E-06  0.209E-03    0.16      14.4  T
  24    -11.8100925 -0.135753E-07  0.129E-03    0.16      23.5  T
  25    -11.8100925 -0.104823E-07  0.734E-04    0.16      41.1  T
  26    -11.8100925 -0.555695E-08  0.353E-04    0.16      85.3  T
     SCC iter.                  ...        0 min,  0.005 sec
     gradient                   ...        0 min,  0.001 sec
 * total energy  :   -11.7632929 Eh     change       -0.2087711E+00 Eh
   gradient norm :     0.2705521 Eh/α   predicted    -0.2246722E+00 (   7.62%)
   displ. norm   :     0.9371499 α      lambda       -0.2507679E+00
   maximum displ.:     0.4649966 α      in ANC's #24, #21, #20, ...

........................................................................
.............................. CYCLE    3 ..............................
........................................................................
   1    -11.9751864 -0.119752E+02  0.370E+00    0.21       0.0  T
   2    -10.8654516  0.110973E+01  0.777E+00    0.95       1.0  T
   3    -11.8798580 -0.101441E+01  0.349E+00    0.51       1.0  T
   4    -11.6688828  0.210975E+00  0.434E+00    0.24       1.0  T
   5    -12.0393291 -0.370446E+00  0.187E+00    0.05       1.0  T
   6    -11.9712320  0.680970E-01  0.242E+00    0.49       1.0  T
   7    -12.0516783 -0.804463E-01  0.145E+00    0.22       1.0  T
   8    -12.0644264 -0.127481E-01  0.113E+00    0.21       1.0  T
   9    -12.0757262 -0.112999E-01  0.800E-01    0.19       1.0  T
  10    -12.0791970 -0.347076E-02  0.623E-01    0.25       1.0  T
  11    -12.0829277 -0.373068E-02  0.414E-01    0.21       1.0  T
  12    -12.0816124  0.131528E-02  0.436E-01    0.20       1.0  T
  13    -12.0820066 -0.394203E-03  0.378E-01    0.19       1.0  T
  14    -12.0847771 -0.277052E-02  0.133E-01    0.18       1.0  T
  15    -12.0848323 -0.551581E-04  0.103E-01    0.18       1.0  T
  16    -12.0848064  0.258836E-04  0.108E-01    0.18       1.0  T
  17    -12.0848954 -0.889703E-04  0.220E-02    0.18       1.4  T
  18    -12.0848948  0.514870E-06  0.870E-03    0.18       3.5  T
  19    -12.0848946  0.259258E-06  0.111E-02    0.18       2.7  T
  20    -12.0848960 -0.136939E-05  0.472E-03    0.18       6.4  T
  21    -12.0848960 -0.670514E-07  0.330E-03    0.18       9.1  T
  22    -12.0848961 -0.121143E-06  0.115E-03    0.18      26.2  T
  23    -12.0848962 -0.103239E-07  0.402E-04    0.18      74.9  T
  24    -12.0848962 -0.953296E-09  0.125E-04    0.18     241.8  T
     SCC iter.                  ...        0 min,  0.006 sec
     gradient                   ...        0 min,  0.001 sec
 * total energy  :   -11.9677228 Eh     change       -0.2044299E+00 Eh
   gradient norm :     0.1532723 Eh/α   predicted    -0.2355024E+00 (  15.20%)
   displ. norm   :     0.8657314 α      lambda       -0.1275256E+00
   maximum displ.:     0.4627409 α      in ANC's #15, #14, #24, ...

........................................................................
.............................. CYCLE    4 ..............................
........................................................................
   1    -12.2262246 -0.122262E+02  0.362E+00    0.75       0.0  T
   2    -11.8151662  0.411058E+00  0.520E+00    0.62       1.0  T
   3    -12.1630334 -0.347867E+00  0.280E+00    0.99       1.0  T
   4     -9.5752630  0.258777E+01  0.883E+00    0.34       1.0  T
   5    -12.1363549 -0.256109E+01  0.249E+00    0.84       1.0  T
   6    -12.2520220 -0.115667E+00  0.156E+00    0.92       1.0  T
   7    -12.2371931  0.148289E-01  0.140E+00    0.83       1.0  T
   8    -12.2492453 -0.120522E-01  0.123E+00    0.85       1.0  T
   9    -12.2560943 -0.684902E-02  0.113E+00    0.85       1.0  T
  10    -12.2680716 -0.119772E-01  0.903E-01    0.84       1.0  T
  11    -12.2800120 -0.119404E-01  0.618E-01    0.82       1.0  T
  12    -12.2771712  0.284072E-02  0.751E-01    0.82       1.0  T
  13    -12.2848084 -0.763719E-02  0.296E-01    0.81       1.0  T
  14    -12.2864100 -0.160153E-02  0.833E-02    0.81       1.0  T
  15    -12.2864341 -0.240873E-04  0.691E-02    0.81       1.0  T
  16    -12.2863279  0.106154E-03  0.726E-02    0.81       1.0  T
  17    -12.2864417 -0.113790E-03  0.375E-02    0.80       1.0  T
  18    -12.2864536 -0.118638E-04  0.825E-03    0.80       3.7  T
  19    -12.2864545 -0.918820E-06  0.105E-02    0.80       2.9  T
  20    -12.2864552 -0.753320E-06  0.625E-03    0.80       4.8  T
  21    -12.2864556 -0.333363E-06  0.227E-03    0.80      13.3  T
  22    -12.2864556 -0.691267E-07  0.212E-04    0.80     142.2  T
  23    -12.2864556  0.241709E-10  0.115E-04    0.80     261.2  T
     SCC iter.                  ...        0 min,  0.005 sec
     gradient                   ...        0 min,  0.001 sec
 * total energy  :   -12.0548228 Eh     change       -0.8710002E-01 Eh
   gradient norm :     0.1444675 Eh/α   predicted    -0.1115524E+00 (  28.07%)
   displ. norm   :     0.7680421 α      lambda       -0.8252829E-01
   maximum displ.:     0.3948285 α      in ANC's #14, #8, #16, ...

........................................................................
.............................. CYCLE    5 ..............................
........................................................................
   1    -12.3071610 -0.123072E+02  0.272E+00    0.90       0.0  T
   2    -12.1646793  0.142482E+00  0.326E+00    0.81       1.0  T
   3    -12.2502634 -0.855842E-01  0.227E+00    1.04       1.0  T
   4    -11.1304601  0.111980E+01  0.607E+00    0.17       1.0  T
   5    -12.3120557 -0.118160E+01  0.993E-01    0.88       1.0  T
   6    -12.3242953 -0.122396E-01  0.592E-01    0.86       1.0  T
   7    -12.3257745 -0.147922E-02  0.373E-01    0.88       1.0  T
   8    -12.3254253  0.349178E-03  0.338E-01    0.87       1.0  T
   9    -12.3276850 -0.225968E-02  0.140E-01    0.86       1.0  T
  10    -12.3273281  0.356848E-03  0.144E-01    0.86       1.0  T
  11    -12.3274398 -0.111626E-03  0.136E-01    0.87       1.0  T
  12    -12.3274883 -0.485321E-04  0.117E-01    0.87       1.0  T
  13    -12.3275980 -0.109754E-03  0.916E-02    0.87       1.0  T
  14    -12.3276110 -0.129307E-04  0.871E-02    0.87       1.0  T
  15    -12.3276839 -0.729066E-04  0.521E-02    0.87       1.0  T
  16    -12.3277210 -0.371614E-04  0.714E-03    0.87       4.2  T
  17    -12.3277215 -0.426247E-06  0.372E-03    0.87       8.1  T
  18    -12.3277216 -0.137073E-06  0.579E-04    0.87      52.1  T
  19    -12.3277216  0.411515E-08  0.546E-04    0.87      55.2  T
     SCC iter.                  ...        0 min,  0.004 sec
     gradient                   ...        0 min,  0.001 sec
 * total energy  :   -12.1060200 Eh     change       -0.5119714E-01 Eh
   gradient norm :     0.1208263 Eh/α   predicted    -0.6560539E-01 (  28.14%)
   displ. norm   :     0.7776740 α      lambda       -0.7678164E-01
   maximum displ.:     0.4571531 α      in ANC's #8, #10, #4, ...

........................................................................
.............................. CYCLE    6 ..............................
........................................................................
   1    -12.2983356 -0.122983E+02  0.213E+00    0.86       0.0  T
   2    -12.2098017  0.885339E-01  0.271E+00    0.43       1.0  T
   3    -12.2876688 -0.778671E-01  0.169E+00    0.82       1.0  T
   4    -12.2976066 -0.993780E-02  0.115E+00    0.83       1.0  T
   5    -12.3122048 -0.145982E-01  0.507E-01    0.67       1.0  T
   6    -12.3128039 -0.599071E-03  0.367E-01    0.76       1.0  T
   7    -12.3116459  0.115795E-02  0.402E-01    0.72       1.0  T
   8    -12.3160965 -0.445052E-02  0.157E-01    0.71       1.0  T
   9    -12.3156066  0.489887E-03  0.165E-01    0.72       1.0  T
  10    -12.3163236 -0.717045E-03  0.348E-02    0.71       1.0  T
  11    -12.3163412 -0.175727E-04  0.186E-02    0.71       1.6  T
  12    -12.3163489 -0.766411E-05  0.582E-03    0.71       5.2  T
  13    -12.3163492 -0.325255E-06  0.146E-03    0.71      20.6  T
  14    -12.3163492 -0.274219E-07  0.379E-04    0.71      79.5  T
  15    -12.3163492 -0.348239E-09  0.224E-04    0.71     134.5  T
     SCC iter.                  ...        0 min,  0.003 sec
     gradient                   ...        0 min,  0.001 sec
 * total energy  :   -12.1265319 Eh     change       -0.2051196E-01 Eh
   gradient norm :     0.2052931 Eh/α   predicted    -0.6160869E-01 ( 200.36%)
   displ. norm   :     0.6691650 α      lambda       -0.8332761E-01
   maximum displ.:     0.2887033 α      in ANC's #11, #7, #8, ...

........................................................................
.............................. CYCLE    7 ..............................
........................................................................
   1    -12.2975332 -0.122975E+02  0.224E+00    1.09       0.0  T
   2    -12.1169925  0.180541E+00  0.375E+00    0.63       1.0  T
   3    -12.3051985 -0.188206E+00  0.120E+00    1.17       1.0  T
   4    -11.8230196  0.482179E+00  0.430E+00    0.50       1.0  T
   5    -12.2799816 -0.456962E+00  0.173E+00    1.10       1.0  T
   6    -12.2577846  0.221971E-01  0.135E+00    0.77       1.0  T
   7    -12.3127432 -0.549586E-01  0.694E-01    1.01       1.0  T
   8    -12.3138778 -0.113460E-02  0.470E-01    0.98       1.0  T
   9    -12.3170292 -0.315145E-02  0.280E-01    1.05       1.0  T
  10    -12.3168987  0.130472E-03  0.225E-01    1.04       1.0  T
  11    -12.3185666 -0.166784E-02  0.804E-02    1.08       1.0  T
  12    -12.3185606  0.603427E-05  0.763E-02    1.08       1.0  T
  13    -12.3186160 -0.554485E-04  0.487E-02    1.08       1.0  T
  14    -12.3186334 -0.173972E-04  0.383E-02    1.08       1.0  T
  15    -12.3186342 -0.820548E-06  0.376E-02    1.08       1.0  T
  16    -12.3186461 -0.118372E-04  0.177E-02    1.08       1.7  T
  17    -12.3186480 -0.195590E-05  0.691E-03    1.08       4.4  T
  18    -12.3186486 -0.566760E-06  0.276E-03    1.08      10.9  T
  19    -12.3186487 -0.108234E-06  0.127E-03    1.08      23.8  T
  20    -12.3186487 -0.157850E-07  0.264E-04    1.08     114.1  T
  21    -12.3186487 -0.533419E-09  0.764E-05    1.08     394.8  T
     SCC iter.                  ...        0 min,  0.004 sec
     gradient                   ...        0 min,  0.001 sec
 * total energy  :   -12.1533318 Eh     change       -0.2679984E-01 Eh
   gradient norm :     0.1591989 Eh/α   predicted    -0.6032009E-01 ( 125.08%)
   displ. norm   :     0.7048711 α      lambda       -0.8257527E-01
   maximum displ.:     0.3836794 α      in ANC's #6, #24, #1, ...

........................................................................
.............................. CYCLE    8 ..............................
........................................................................
   1    -12.3723211 -0.123723E+02  0.274E+00    1.17       0.0  T
   2    -12.2798358  0.924853E-01  0.330E+00    0.70       1.0  T
   3    -12.3984133 -0.118577E+00  0.180E+00    1.23       1.0  T
   4    -12.1566783  0.241735E+00  0.272E+00    0.61       1.0  T
   5    -12.2506282 -0.939499E-01  0.249E+00    1.18       1.0  T
   6    -12.3565866 -0.105958E+00  0.158E+00    1.20       1.0  T
   7    -12.3951118 -0.385252E-01  0.832E-01    1.13       1.0  T
   8    -12.4206184 -0.255066E-01  0.327E-01    1.07       1.0  T
   9    -12.4211612 -0.542761E-03  0.295E-01    1.07       1.0  T
  10    -12.4212490 -0.877967E-04  0.287E-01    1.07       1.0  T
  11    -12.4220354 -0.786396E-03  0.134E-01    1.07       1.0  T
  12    -12.4223672 -0.331787E-03  0.566E-02    1.06       1.0  T
  13    -12.4223738 -0.662173E-05  0.351E-02    1.06       1.0  T
  14    -12.4223713  0.249445E-05  0.186E-02    1.06       1.6  T
  15    -12.4223800 -0.867466E-05  0.109E-02    1.06       2.8  T
  16    -12.4223808 -0.847756E-06  0.150E-03    1.06      20.1  T
  17    -12.4223809 -0.436998E-07  0.675E-04    1.06      44.7  T
  18    -12.4223809 -0.134227E-08  0.160E-04    1.06     188.6  T
     SCC iter.                  ...        0 min,  0.004 sec
     gradient                   ...        0 min,  0.001 sec
 * total energy  :   -12.1631466 Eh     change       -0.9814809E-02 Eh
   gradient norm :     0.3014565 Eh/α   predicted    -0.6180111E-01 ( 529.67%)
   displ. norm   :     0.4491727 α      lambda       -0.9796911E-01
   maximum displ.:     0.2106333 α      in ANC's #21, #24, #7, ...

........................................................................
.............................. CYCLE    9 ..............................
........................................................................
   1    -12.4163683 -0.124164E+02  0.147E+00    1.12       0.0  T
   2    -12.4017795  0.145887E-01  0.130E+00    0.77       1.0  T
   3    -12.4020241 -0.244549E-03  0.118E+00    1.00       1.0  T
   4    -12.3748484  0.271757E-01  0.143E+00    1.12       1.0  T
   5    -12.4220391 -0.471907E-01  0.462E-01    1.00       1.0  T
   6    -12.4241878 -0.214878E-02  0.184E-01    0.98       1.0  T
   7    -12.4247125 -0.524676E-03  0.154E-01    0.97       1.0  T
   8    -12.4244330  0.279496E-03  0.167E-01    0.97       1.0  T
   9    -12.4249492 -0.516193E-03  0.288E-02    0.97       1.0  T
  10    -12.4249657 -0.165246E-04  0.137E-02    0.98       2.2  T
  11    -12.4249674 -0.170732E-05  0.806E-03    0.97       3.7  T
  12    -12.4249675 -0.380983E-07  0.635E-03    0.97       4.7  T
  13    -12.4249681 -0.591323E-06  0.898E-04    0.97      33.6  T
  14    -12.4249681 -0.825139E-08  0.501E-04    0.97      60.1  T
     SCC iter.                  ...        0 min,  0.003 sec
     gradient                   ...        0 min,  0.001 sec
 * total energy  :   -12.2162842 Eh     change       -0.5313763E-01 Eh
   gradient norm :     0.1172921 Eh/α   predicted    -0.5886750E-01 (  10.78%)
   displ. norm   :     0.7728785 α      lambda       -0.7727978E-01
   maximum displ.:     0.3278220 α      in ANC's #27, #1, #21, ...

........................................................................
.............................. CYCLE   10 ..............................
........................................................................
   1    -12.4460108 -0.124460E+02  0.191E+00    1.03       0.0  T
   2    -12.3975327  0.484781E-01  0.167E+00    1.21       1.0  T
   3    -11.7861876  0.611345E+00  0.475E+00    0.48       1.0  T
   4    -12.4280015 -0.641814E+00  0.149E+00    1.08       1.0  T
   5    -12.4191829  0.881867E-02  0.137E+00    0.99       1.0  T
   6    -12.4474817 -0.282988E-01  0.517E-01    1.09       1.0  T
   7    -12.4506043 -0.312258E-02  0.304E-01    1.11       1.0  T
   8    -12.4510303 -0.425958E-03  0.271E-01    1.08       1.0  T
   9    -12.4515129 -0.482614E-03  0.112E-01    1.11       1.0  T
  10    -12.4515351 -0.222647E-04  0.663E-02    1.10       1.0  T
  11    -12.4514690  0.661041E-04  0.778E-02    1.11       1.0  T
  12    -12.4515063 -0.372934E-04  0.611E-02    1.10       1.0  T
  13    -12.4515508 -0.445076E-04  0.400E-02    1.10       1.0  T
  14    -12.4515766 -0.257926E-04  0.269E-02    1.10       1.1  T
  15    -12.4515881 -0.114526E-04  0.138E-02    1.10       2.2  T
  16    -12.4515918 -0.372874E-05  0.332E-03    1.10       9.1  T
  17    -12.4515919 -0.997045E-07  0.113E-03    1.10      26.7  T
  18    -12.4515919 -0.285388E-07  0.575E-04    1.10      52.5  T
  19    -12.4515919 -0.905606E-08  0.127E-04    1.10     237.5  T
     SCC iter.                  ...        0 min,  0.004 sec
     gradient                   ...        0 min,  0.001 sec
 * total energy  :   -12.2535631 Eh     change       -0.3727886E-01 Eh
   gradient norm :     0.1697141 Eh/α   predicted    -0.6172108E-01 (  65.57%)
   displ. norm   :     0.7071615 α      lambda       -0.7373456E-01
   maximum displ.:     0.3999926 α      in ANC's #27, #6, #26, ...

........................................................................
.............................. CYCLE   11 ..............................
........................................................................
   1    -12.4732705 -0.124733E+02  0.210E+00    1.10       0.0  T
   2    -12.3079361  0.165334E+00  0.288E+00    0.92       1.0  T
   3    -12.4095539 -0.101618E+00  0.203E+00    1.09       1.0  T
   4    -12.2741116  0.135442E+00  0.264E+00    0.69       1.0  T
   5    -12.4292077 -0.155096E+00  0.150E+00    1.31       1.0  T
   6    -12.4565723 -0.273646E-01  0.107E+00    1.32       1.0  T
   7    -12.4792331 -0.226607E-01  0.594E-01    1.27       1.0  T
   8    -12.4873228 -0.808975E-02  0.396E-01    1.25       1.0  T
   9    -12.4894899 -0.216707E-02  0.257E-01    1.22       1.0  T
  10    -12.4899161 -0.426243E-03  0.124E-01    1.20       1.0  T
  11    -12.4902690 -0.352817E-03  0.774E-02    1.21       1.0  T
  12    -12.4903968 -0.127851E-03  0.678E-02    1.21       1.0  T
  13    -12.4904722 -0.753626E-04  0.293E-02    1.22       1.0  T
  14    -12.4904816 -0.939703E-05  0.527E-03    1.22       5.7  T
  15    -12.4904817 -0.163084E-06  0.371E-03    1.22       8.1  T
  16    -12.4904819 -0.185117E-06  0.132E-03    1.22      22.8  T
  17    -12.4904819 -0.188081E-07  0.442E-04    1.22      68.2  T
  18    -12.4904819 -0.922986E-09  0.129E-04    1.22     233.9  T
     SCC iter.                  ...        0 min,  0.003 sec
     gradient                   ...        0 min,  0.001 sec
 * total energy  :   -12.3051400 Eh     change       -0.5157695E-01 Eh
   gradient norm :     0.1410539 Eh/α   predicted    -0.5530377E-01 (   7.23%)
   displ. norm   :     0.6423300 α      lambda       -0.6392463E-01
   maximum displ.:     0.2664472 α      in ANC's #15, #27, #17, ...

........................................................................
.............................. CYCLE   12 ..............................
........................................................................
   1    -12.5640603 -0.125641E+02  0.180E+00    1.40       0.0  T
   2    -12.5276778  0.363825E-01  0.178E+00    1.35       1.0  T
   3    -12.5049237  0.227541E-01  0.198E+00    1.42       1.0  T
   4    -12.4833469  0.215768E-01  0.161E+00    1.10       1.0  T
   5    -12.5346602 -0.513133E-01  0.107E+00    1.52       1.0  T
   6    -12.5629829 -0.283227E-01  0.486E-01    1.43       1.0  T
   7    -12.5696229 -0.664000E-02  0.170E-01    1.41       1.0  T
   8    -12.5699200 -0.297086E-03  0.142E-01    1.39       1.0  T
   9    -12.5699129  0.715474E-05  0.124E-01    1.38       1.0  T
  10    -12.5700137 -0.100838E-03  0.546E-02    1.39       1.0  T
  11    -12.5700869 -0.732381E-04  0.124E-02    1.39       2.4  T
  12    -12.5700889 -0.197483E-05  0.102E-02    1.39       3.0  T
  13    -12.5700892 -0.269620E-06  0.266E-03    1.39      11.3  T
  14    -12.5700893 -0.120023E-06  0.128E-03    1.39      23.5  T
  15    -12.5700893 -0.404152E-08  0.369E-04    1.39      81.8  T
  16    -12.5700893 -0.141768E-08  0.138E-04    1.39     218.8  T
     SCC iter.                  ...        0 min,  0.003 sec
     gradient                   ...        0 min,  0.001 sec
 * total energy  :   -12.3331956 Eh     change       -0.2805559E-01 Eh
   gradient norm :     0.1477371 Eh/α   predicted    -0.4514959E-01 (  60.93%)
   displ. norm   :     0.6121194 α      lambda       -0.5058566E-01
   maximum displ.:     0.3644382 α      in ANC's #6, #27, #15, ...

........................................................................
.............................. CYCLE   13 ..............................
........................................................................
   1    -12.5380956 -0.125381E+02  0.197E+00    1.07       0.0  T
   2    -12.4252047  0.112891E+00  0.266E+00    0.97       1.0  T
   3    -12.4472044 -0.219997E-01  0.236E+00    0.99       1.0  T
   4    -12.3795528  0.676516E-01  0.272E+00    1.19       1.0  T
   5    -12.5278128 -0.148260E+00  0.888E-01    1.07       1.0  T
   6    -12.5444988 -0.166859E-01  0.357E-01    1.05       1.0  T
   7    -12.5476303 -0.313150E-02  0.248E-01    1.03       1.0  T
   8    -12.5476626 -0.323599E-04  0.156E-01    1.02       1.0  T
   9    -12.5475891  0.735049E-04  0.151E-01    1.02       1.0  T
  10    -12.5477732 -0.184066E-03  0.946E-02    1.02       1.0  T
  11    -12.5478890 -0.115840E-03  0.562E-02    1.02       1.0  T
  12    -12.5479221 -0.330180E-04  0.139E-02    1.02       2.2  T
  13    -12.5479278 -0.578126E-05  0.535E-03    1.02       5.6  T
  14    -12.5479279 -0.224466E-07  0.353E-03    1.02       8.5  T
  15    -12.5479279 -0.366339E-08  0.170E-03    1.02      17.7  T
  16    -12.5479279 -0.225390E-07  0.892E-04    1.02      33.8  T
  17    -12.5479279 -0.882489E-08  0.280E-04    1.02     107.7  T
     SCC iter.                  ...        0 min,  0.003 sec
     gradient                   ...        0 min,  0.001 sec
 * total energy  :   -12.3480376 Eh     change       -0.1484195E-01 Eh
   gradient norm :     0.0997399 Eh/α   predicted    -0.3476983E-01 ( 134.27%)
   displ. norm   :     0.5340998 α      lambda       -0.3483624E-01
   maximum displ.:     0.3103574 α      in ANC's #1, #12, #11, ...

........................................................................
.............................. CYCLE   14 ..............................
........................................................................
   1    -12.5790108 -0.125790E+02  0.185E+00    1.25       0.0  T
   2    -12.5396311  0.393797E-01  0.174E+00    1.20       1.0  T
   3    -12.4965832  0.430479E-01  0.249E+00    1.35       1.0  T
   4    -12.5067950 -0.102118E-01  0.172E+00    0.96       1.0  T
   5    -12.5479785 -0.411835E-01  0.107E+00    1.38       1.0  T
   6    -12.5812143 -0.332358E-01  0.464E-01    1.31       1.0  T
   7    -12.5845884 -0.337403E-02  0.255E-01    1.28       1.0  T
   8    -12.5848735 -0.285133E-03  0.225E-01    1.26       1.0  T
   9    -12.5846416  0.231868E-03  0.167E-01    1.25       1.0  T
  10    -12.5852157 -0.574101E-03  0.371E-02    1.28       1.0  T
  11    -12.5852273 -0.116076E-04  0.222E-02    1.28       1.4  T
  12    -12.5852311 -0.377113E-05  0.144E-02    1.28       2.1  T
  13    -12.5852330 -0.186998E-05  0.246E-03    1.28      12.2  T
  14    -12.5852330 -0.598792E-07  0.165E-03    1.28      18.2  T
  15    -12.5852331 -0.191544E-07  0.470E-04    1.28      64.1  T
  16    -12.5852331 -0.432924E-08  0.582E-05    1.28     518.1  T
     SCC iter.                  ...        0 min,  0.003 sec
     gradient                   ...        0 min,  0.001 sec
 * total energy  :   -12.3580607 Eh     change       -0.1002316E-01 Eh
   gradient norm :     0.1169729 Eh/α   predicted    -0.2238685E-01 ( 123.35%)
   displ. norm   :     0.4514420 α      lambda       -0.2876488E-01
   maximum displ.:     0.1906102 α      in ANC's #14, #8, #6, ...

........................................................................
.............................. CYCLE   15 ..............................
........................................................................
   1    -12.5660250 -0.125660E+02  0.158E+00    1.15       0.0  T
   2    -12.4924507  0.735743E-01  0.225E+00    1.16       1.0  T
   3    -12.5641427 -0.716920E-01  0.120E+00    1.18       1.0  T
   4    -12.5719869 -0.784422E-02  0.790E-01    1.24       1.0  T
   5    -12.5751789 -0.319199E-02  0.623E-01    1.24       1.0  T
   6    -12.5798385 -0.465962E-02  0.221E-01    1.20       1.0  T
   7    -12.5794960  0.342569E-03  0.208E-01    1.27       1.0  T
   8    -12.5806278 -0.113185E-02  0.108E-01    1.22       1.0  T
   9    -12.5808021 -0.174276E-03  0.326E-02    1.24       1.0  T
  10    -12.5808005  0.153068E-05  0.234E-02    1.24       1.3  T
  11    -12.5808116 -0.110240E-04  0.107E-02    1.24       2.8  T
  12    -12.5808135 -0.197534E-05  0.243E-03    1.24      12.4  T
  13    -12.5808136 -0.497253E-07  0.131E-03    1.24      23.0  T
  14    -12.5808136 -0.363426E-07  0.183E-04    1.24     164.4  T
  15    -12.5808136 -0.167542E-09  0.121E-04    1.24     250.0  T
     SCC iter.                  ...        0 min,  0.003 sec
     gradient                   ...        0 min,  0.000 sec
 * total energy  :   -12.3546353 Eh     change        0.3425421E-02 Eh
   gradient norm :     0.1336558 Eh/α   predicted    -0.1731358E-01 (-605.44%)
   displ. norm   :     0.4497461 α      lambda       -0.4062391E-01
   maximum displ.:     0.2161190 α      in ANC's #14, #6, #15, ...

........................................................................
.............................. CYCLE   16 ..............................
........................................................................
   1    -12.5916658 -0.125917E+02  0.136E+00    1.51       0.0  T
   2    -12.5035653  0.881005E-01  0.221E+00    1.21       1.0  T
   3    -12.5718907 -0.683254E-01  0.139E+00    1.44       1.0  T
   4    -12.5812309 -0.934026E-02  0.843E-01    1.41       1.0  T
   5    -12.5795817  0.164923E-02  0.850E-01    1.55       1.0  T
   6    -12.5966843 -0.171026E-01  0.414E-01    1.43       1.0  T
   7    -12.5980909 -0.140660E-02  0.211E-01    1.47       1.0  T
   8    -12.5984734 -0.382510E-03  0.196E-01    1.46       1.0  T
   9    -12.5983868  0.866130E-04  0.131E-01    1.44       1.0  T
  10    -12.5987062 -0.319465E-03  0.222E-02    1.45       1.4  T
  11    -12.5987092 -0.293378E-05  0.136E-02    1.45       2.2  T
  12    -12.5987122 -0.307920E-05  0.305E-03    1.45       9.9  T
  13    -12.5987123 -0.116694E-07  0.155E-03    1.45      19.4  T
  14    -12.5987123 -0.334739E-07  0.106E-03    1.45      28.4  T
  15    -12.5987123 -0.122080E-07  0.138E-04    1.45     218.0  T
  16    -12.5987123 -0.528821E-10  0.456E-05    1.45     661.2  T
     SCC iter.                  ...        0 min,  0.003 sec
     gradient                   ...        0 min,  0.001 sec
 * total energy  :   -12.3637009 Eh     change       -0.9065632E-02 Eh
   gradient norm :     0.0958062 Eh/α   predicted    -0.2442049E-01 ( 169.37%)
   displ. norm   :     0.4499232 α      lambda       -0.2824442E-01
   maximum displ.:     0.2138387 α      in ANC's #10, #17, #5, ...

........................................................................
.............................. CYCLE   17 ..............................
........................................................................
   1    -12.6124591 -0.126125E+02  0.128E+00    1.35       0.0  T
   2    -12.5813830  0.310761E-01  0.153E+00    1.25       1.0  T
   3    -12.5866180 -0.523498E-02  0.126E+00    1.24       1.0  T
   4    -12.5364906  0.501274E-01  0.172E+00    1.49       1.0  T
   5    -12.6120436 -0.755530E-01  0.500E-01    1.35       1.0  T
   6    -12.6147566 -0.271297E-02  0.288E-01    1.34       1.0  T
   7    -12.6162456 -0.148899E-02  0.170E-01    1.33       1.0  T
   8    -12.6161926  0.529511E-04  0.144E-01    1.32       1.0  T
   9    -12.6165948 -0.402119E-03  0.772E-02    1.32       1.0  T
  10    -12.6166624 -0.676590E-04  0.375E-02    1.33       1.0  T
  11    -12.6166805 -0.180509E-04  0.233E-02    1.33       1.3  T
  12    -12.6166896 -0.918600E-05  0.474E-03    1.33       6.4  T
  13    -12.6166899 -0.203388E-06  0.209E-03    1.33      14.4  T
  14    -12.6166899 -0.354883E-07  0.399E-04    1.33      75.6  T
  15    -12.6166899 -0.136688E-08  0.236E-04    1.33     127.9  T
     SCC iter.                  ...        0 min,  0.003 sec
     gradient                   ...        0 min,  0.001 sec
 * total energy  :   -12.3645719 Eh     change       -0.8709526E-03 Eh
   gradient norm :     0.1403296 Eh/α   predicted    -0.1698098E-01 (1849.70%)
   displ. norm   :     0.4016950 α      lambda       -0.3245952E-01
   maximum displ.:     0.1837883 α      in ANC's #6, #10, #17, ...

........................................................................
.............................. CYCLE   18 ..............................
........................................................................
   1    -12.5641542 -0.125642E+02  0.861E-01    1.38       0.0  T
   2    -12.5415660  0.225882E-01  0.138E+00    1.33       1.0  T
   3    -12.5656433 -0.240772E-01  0.478E-01    1.40       1.0  T
   4    -12.5565122  0.913109E-02  0.797E-01    1.37       1.0  T
   5    -12.5653415 -0.882934E-02  0.255E-01    1.39       1.0  T
   6    -12.5654942 -0.152725E-03  0.198E-01    1.40       1.0  T
   7    -12.5660215 -0.527252E-03  0.877E-02    1.40       1.0  T
   8    -12.5660202  0.122612E-05  0.687E-02    1.40       1.0  T
   9    -12.5660983 -0.780110E-04  0.399E-02    1.40       1.0  T
  10    -12.5661167 -0.184276E-04  0.127E-02    1.40       2.4  T
  11    -12.5661181 -0.144029E-05  0.470E-03    1.40       6.4  T
  12    -12.5661183 -0.137099E-06  0.176E-03    1.40      17.2  T
  13    -12.5661183 -0.129518E-07  0.296E-04    1.40     101.9  T
  14    -12.5661183 -0.579252E-10  0.136E-04    1.40     221.5  T
     SCC iter.                  ...        0 min,  0.003 sec
     gradient                   ...        0 min,  0.000 sec
 * total energy  :   -12.3688598 Eh     change       -0.4287967E-02 Eh
   gradient norm :     0.0977454 Eh/α   predicted    -0.1884857E-01 ( 339.57%)
   displ. norm   :     0.4598888 α      lambda       -0.2599888E-01
   maximum displ.:     0.2043490 α      in ANC's #6, #10, #8, ...

........................................................................
.............................. CYCLE   19 ..............................
........................................................................
   1    -12.6077435 -0.126077E+02  0.188E+00    1.30       0.0  T
   2    -12.4361670  0.171576E+00  0.330E+00    1.05       1.0  T
   3    -12.6216544 -0.185487E+00  0.112E+00    1.36       1.0  T
   4    -12.5977532  0.239012E-01  0.130E+00    1.44       1.0  T
   5    -12.6051969 -0.744375E-02  0.987E-01    1.23       1.0  T
   6    -12.6224396 -0.172427E-01  0.813E-01    1.42       1.0  T
   7    -12.6357903 -0.133507E-01  0.219E-01    1.39       1.0  T
   8    -12.6358283 -0.380250E-04  0.198E-01    1.37       1.0  T
   9    -12.6360727 -0.244408E-03  0.162E-01    1.36       1.0  T
  10    -12.6365378 -0.465018E-03  0.684E-02    1.37       1.0  T
  11    -12.6366655 -0.127751E-03  0.125E-02    1.38       2.4  T
  12    -12.6366657 -0.221113E-06  0.947E-03    1.38       3.2  T
  13    -12.6366671 -0.133404E-05  0.337E-03    1.38       8.9  T
  14    -12.6366672 -0.985836E-07  0.267E-03    1.38      11.3  T
  15    -12.6366672 -0.688997E-07  0.817E-04    1.38      36.9  T
  16    -12.6366672 -0.128789E-07  0.176E-04    1.38     171.2  T
     SCC iter.                  ...        0 min,  0.003 sec
     gradient                   ...        0 min,  0.001 sec
 * total energy  :   -12.3667063 Eh     change        0.2153539E-02 Eh
   gradient norm :     0.1381432 Eh/α   predicted    -0.1574879E-01 (-831.30%)
   displ. norm   :     0.3662202 α      lambda       -0.2700620E-01
   maximum displ.:     0.2607786 α      in ANC's #6, #7, #21, ...

........................................................................
.............................. CYCLE   20 ..............................
........................................................................
   1    -12.6051374 -0.126051E+02  0.158E+00    1.35       0.0  T
   2    -12.4934822  0.111655E+00  0.240E+00    1.14       1.0  T
   3    -12.5670813 -0.735991E-01  0.177E+00    1.18       1.0  T
   4    -12.6042542 -0.371729E-01  0.990E-01    1.32       1.0  T
   5    -12.5914091  0.128451E-01  0.969E-01    1.39       1.0  T
   6    -12.6120097 -0.206006E-01  0.423E-01    1.35       1.0  T
   7    -12.6125389 -0.529218E-03  0.372E-01    1.34       1.0  T
   8    -12.6128476 -0.308662E-03  0.339E-01    1.35       1.0  T
   9    -12.6136801 -0.832471E-03  0.173E-01    1.36       1.0  T
  10    -12.6139859 -0.305869E-03  0.379E-02    1.35       1.0  T
  11    -12.6139844  0.147730E-05  0.261E-02    1.35       1.2  T
  12    -12.6139934 -0.892805E-05  0.453E-03    1.35       6.7  T
  13    -12.6139934  0.191442E-07  0.291E-03    1.35      10.4  T
  14    -12.6139934 -0.634515E-07  0.169E-03    1.35      17.8  T
  15    -12.6139934 -0.220353E-07  0.431E-04    1.35      70.0  T
  16    -12.6139934 -0.144697E-09  0.219E-04    1.35     137.6  T
     SCC iter.                  ...        0 min,  0.003 sec
     gradient                   ...        0 min,  0.001 sec
 * total energy  :   -12.3767322 Eh     change       -0.1002588E-01 Eh
   gradient norm :     0.0629034 Eh/α   predicted    -0.1531410E-01 (  52.75%)
   displ. norm   :     0.4117922 α      lambda       -0.1719455E-01
   maximum displ.:     0.1520686 α      in ANC's #1, #13, #4, ...
 * RMSD in coord.:     1.7821283 α      energy gain  -0.8222103E+00 Eh

generating ANC from model Hessian ...
Using Lindh-Hessian (1995)
 Shifting diagonal of input Hessian by    1.1221276916214391E-002
 Lowest  eigenvalues of input Hessian
    0.010000    0.011101    0.000000    0.000000    0.000000    0.000000
    0.000000    0.000000    0.011241    0.011305    0.011457    0.011788
    0.011993    0.019287    0.023303    0.026644    0.058584    0.065731
 Highest eigenvalues
    0.756171    0.801153    1.123255    1.232870    1.385444    1.940465


........................................................................
.............................. CYCLE   21 ..............................
........................................................................
   1    -12.5846717 -0.125847E+02  0.108E+00    1.43       0.0  T
   2    -12.4653411  0.119331E+00  0.240E+00    1.48       1.0  T
   3    -12.5846056 -0.119265E+00  0.716E-01    1.45       1.0  T
   4    -12.5691585  0.154471E-01  0.111E+00    1.44       1.0  T
   5    -12.5910879 -0.219294E-01  0.409E-01    1.44       1.0  T
   6    -12.5925256 -0.143765E-02  0.178E-01    1.47       1.0  T
   7    -12.5923223  0.203315E-03  0.203E-01    1.46       1.0  T
   8    -12.5927445 -0.422225E-03  0.136E-01    1.46       1.0  T
   9    -12.5928755 -0.130975E-03  0.706E-02    1.46       1.0  T
  10    -12.5929706 -0.951616E-04  0.344E-02    1.46       1.0  T
  11    -12.5929907 -0.200874E-04  0.122E-02    1.47       2.5  T
  12    -12.5929919 -0.120210E-05  0.344E-03    1.46       8.8  T
  13    -12.5929921 -0.168952E-06  0.147E-03    1.47      20.5  T
  14    -12.5929921 -0.512776E-07  0.479E-04    1.47      62.9  T
  15    -12.5929921 -0.218546E-08  0.150E-04    1.47     200.8  T
     SCC iter.                  ...        0 min,  0.003 sec
     gradient                   ...        0 min,  0.001 sec
 * total energy  :   -12.3680757 Eh     change        0.8656468E-02 Eh
   gradient norm :     0.1257059 Eh/α   predicted     0.0000000E+00 (-100.00%)
   displ. norm   :     0.2432127 α      lambda       -0.1937496E-01
   maximum displ.:     0.1090078 α      in ANC's #6, #21, #19, ...

........................................................................
.............................. CYCLE   22 ..............................
........................................................................
   1    -12.6120149 -0.126120E+02  0.529E-01    1.48       0.0  T
   2    -12.5954982  0.165167E-01  0.880E-01    1.40       1.0  T
   3    -12.6063569 -0.108587E-01  0.605E-01    1.47       1.0  T
   4    -12.6106880 -0.433110E-02  0.414E-01    1.46       1.0  T
   5    -12.6113379 -0.649894E-03  0.291E-01    1.48       1.0  T
   6    -12.6129986 -0.166071E-02  0.122E-01    1.45       1.0  T
   7    -12.6132008 -0.202219E-03  0.523E-02    1.46       1.0  T
   8    -12.6131946  0.623008E-05  0.547E-02    1.46       1.0  T
   9    -12.6132267 -0.321029E-04  0.225E-02    1.46       1.3  T
  10    -12.6132335 -0.683001E-05  0.757E-03    1.46       4.0  T
  11    -12.6132340 -0.440162E-06  0.452E-03    1.46       6.7  T
  12    -12.6132343 -0.300775E-06  0.105E-03    1.46      28.6  T
  13    -12.6132343 -0.221049E-07  0.412E-04    1.46      73.1  T
  14    -12.6132343 -0.340044E-09  0.159E-04    1.46     189.9  T
     SCC iter.                  ...        0 min,  0.002 sec
     gradient                   ...        0 min,  0.001 sec
 * total energy  :   -12.3812004 Eh     change       -0.1312464E-01 Eh
   gradient norm :     0.0433672 Eh/α   predicted    -0.1026052E-01 ( -21.82%)
   displ. norm   :     0.2987508 α      lambda       -0.5184346E-02
   maximum displ.:     0.1637942 α      in ANC's #6, #9, #1, ...

........................................................................
.............................. CYCLE   23 ..............................
........................................................................
   1    -12.6228787 -0.126229E+02  0.555E-01    1.46       0.0  T
   2    -12.6182470  0.463174E-02  0.509E-01    1.42       1.0  T
   3    -12.6073387  0.109083E-01  0.848E-01    1.48       1.0  T
   4    -12.6193522 -0.120134E-01  0.481E-01    1.45       1.0  T
   5    -12.6224390 -0.308685E-02  0.212E-01    1.46       1.0  T
   6    -12.6232540 -0.814966E-03  0.771E-02    1.44       1.0  T
   7    -12.6233312 -0.771777E-04  0.348E-02    1.45       1.0  T
   8    -12.6232970  0.342128E-04  0.623E-02    1.44       1.0  T
   9    -12.6233493 -0.523872E-04  0.124E-02    1.45       2.4  T
  10    -12.6233504 -0.108932E-05  0.646E-03    1.45       4.7  T
  11    -12.6233506 -0.215225E-06  0.484E-03    1.45       6.2  T
  12    -12.6233511 -0.451814E-06  0.125E-03    1.45      24.2  T
  13    -12.6233511 -0.175732E-07  0.440E-04    1.45      68.5  T
  14    -12.6233511 -0.908006E-09  0.153E-04    1.45     197.5  T
     SCC iter.                  ...        0 min,  0.003 sec
     gradient                   ...        0 min,  0.000 sec
 * total energy  :   -12.3845078 Eh     change       -0.3307444E-02 Eh
   gradient norm :     0.0162781 Eh/α   predicted    -0.2823526E-02 ( -14.63%)
   displ. norm   :     0.3764233 α      lambda       -0.2608378E-02
   maximum displ.:     0.2295403 α      in ANC's #6, #9, #12, ...

........................................................................
.............................. CYCLE   24 ..............................
........................................................................
   1    -12.6180644 -0.126181E+02  0.778E-01    1.46       0.0  T
   2    -12.6169635  0.110087E-02  0.580E-01    1.45       1.0  T
   3    -12.6005422  0.164212E-01  0.979E-01    1.44       1.0  T
   4    -12.6122778 -0.117356E-01  0.551E-01    1.45       1.0  T
   5    -12.6181163 -0.583852E-02  0.861E-02    1.45       1.0  T
   6    -12.6180738  0.425135E-04  0.881E-02    1.45       1.0  T
   7    -12.6182134 -0.139610E-03  0.598E-02    1.44       1.0  T
   8    -12.6182525 -0.390739E-04  0.243E-02    1.45       1.2  T
   9    -12.6182546 -0.207635E-05  0.891E-03    1.45       3.4  T
  10    -12.6182548 -0.257813E-06  0.710E-03    1.45       4.2  T
  11    -12.6182555 -0.696762E-06  0.274E-03    1.45      11.0  T
  12    -12.6182556 -0.778879E-07  0.834E-04    1.45      36.1  T
  13    -12.6182556  0.964029E-11  0.796E-04    1.45      37.9  T
     SCC iter.                  ...        0 min,  0.003 sec
     gradient                   ...        0 min,  0.001 sec
 * total energy  :   -12.3864646 Eh     change       -0.1956797E-02 Eh
   gradient norm :     0.0207300 Eh/α   predicted    -0.1488979E-02 ( -23.91%)
   displ. norm   :     0.5458377 α      lambda       -0.3382945E-02
   maximum displ.:     0.3172875 α      in ANC's #9, #1, #12, ...

........................................................................
.............................. CYCLE   25 ..............................
........................................................................
   1    -12.6169647 -0.126170E+02  0.105E+00    1.46       0.0  T
   2    -12.6145393  0.242535E-02  0.837E-01    1.43       1.0  T
   3    -12.5578931  0.566462E-01  0.166E+00    1.40       1.0  T
   4    -12.6017780 -0.438849E-01  0.886E-01    1.42       1.0  T
   5    -12.6166602 -0.148822E-01  0.219E-01    1.44       1.0  T
   6    -12.6164904  0.169772E-03  0.179E-01    1.44       1.0  T
   7    -12.6171991 -0.708623E-03  0.103E-01    1.44       1.0  T
   8    -12.6172437 -0.446686E-04  0.789E-02    1.44       1.0  T
   9    -12.6172893 -0.455834E-04  0.274E-02    1.44       1.1  T
  10    -12.6172964 -0.706644E-05  0.746E-03    1.44       4.0  T
  11    -12.6172968 -0.394694E-06  0.380E-03    1.44       7.9  T
  12    -12.6172969 -0.101266E-06  0.106E-03    1.44      28.4  T
  13    -12.6172969 -0.110300E-08  0.799E-04    1.44      37.7  T
  14    -12.6172969 -0.434865E-08  0.397E-04    1.44      76.0  T
     SCC iter.                  ...        0 min,  0.003 sec
     gradient                   ...        0 min,  0.001 sec
 * total energy  :   -12.3881745 Eh     change       -0.1709862E-02 Eh
   gradient norm :     0.0338903 Eh/α   predicted    -0.2195442E-02 (  28.40%)
   displ. norm   :     0.3534282 α      lambda       -0.2833760E-02
   maximum displ.:     0.2082528 α      in ANC's #6, #11, #12, ...

........................................................................
.............................. CYCLE   26 ..............................
........................................................................
   1    -12.6169514 -0.126170E+02  0.709E-01    1.46       0.0  T
   2    -12.6144509  0.250050E-02  0.578E-01    1.41       1.0  T
   3    -12.5893469  0.251040E-01  0.129E+00    1.50       1.0  T
   4    -12.6170623 -0.277154E-01  0.112E-01    1.44       1.0  T
   5    -12.6171305 -0.681481E-04  0.782E-02    1.44       1.0  T
   6    -12.6171323 -0.179699E-05  0.718E-02    1.44       1.0  T
   7    -12.6171264  0.581420E-05  0.624E-02    1.45       1.0  T
   8    -12.6171762 -0.497489E-04  0.196E-02    1.45       1.5  T
   9    -12.6171822 -0.604863E-05  0.142E-02    1.45       2.1  T
  10    -12.6171842 -0.191311E-05  0.788E-03    1.45       3.8  T
  11    -12.6171848 -0.663775E-06  0.384E-03    1.45       7.8  T
  12    -12.6171850 -0.150985E-06  0.229E-03    1.45      13.2  T
  13    -12.6171850 -0.438830E-07  0.132E-03    1.45      22.9  T
  14    -12.6171850 -0.198042E-07  0.306E-04    1.45      98.6  T
  15    -12.6171850 -0.105316E-08  0.605E-05    1.45     498.6  T
     SCC iter.                  ...        0 min,  0.003 sec
     gradient                   ...        0 min,  0.001 sec
 * total energy  :   -12.3905153 Eh     change       -0.2340872E-02 Eh
   gradient norm :     0.0288002 Eh/α   predicted    -0.1593867E-02 ( -31.91%)
   displ. norm   :     0.5452761 α      lambda       -0.5901776E-02
   maximum displ.:     0.3040769 α      in ANC's #11, #6, #12, ...

........................................................................
.............................. CYCLE   27 ..............................
........................................................................
   1    -12.6291882 -0.126292E+02  0.178E+00    1.48       0.0  T
   2    -12.6140810  0.151072E-01  0.136E+00    1.36       1.0  T
   3    -12.3463948  0.267686E+00  0.433E+00    1.49       1.0  T
   4    -12.6178190 -0.271424E+00  0.102E+00    1.45       1.0  T
   5    -12.6132357  0.458334E-02  0.104E+00    1.47       1.0  T
   6    -12.6276794 -0.144437E-01  0.402E-01    1.45       1.0  T
   7    -12.6291206 -0.144122E-02  0.382E-01    1.45       1.0  T
   8    -12.6300965 -0.975858E-03  0.322E-01    1.44       1.0  T
   9    -12.6303292 -0.232712E-03  0.215E-01    1.45       1.0  T
  10    -12.6307499 -0.420695E-03  0.119E-01    1.47       1.0  T
  11    -12.6307854 -0.354812E-04  0.103E-01    1.47       1.0  T
  12    -12.6308213 -0.358986E-04  0.550E-02    1.47       1.0  T
  13    -12.6308269 -0.564852E-05  0.308E-02    1.47       1.0  T
  14    -12.6308292 -0.229649E-05  0.197E-02    1.47       1.5  T
  15    -12.6308315 -0.227720E-05  0.625E-03    1.47       4.8  T
  16    -12.6308317 -0.200722E-06  0.267E-03    1.47      11.3  T
  17    -12.6308317 -0.414205E-07  0.134E-03    1.47      22.5  T
  18    -12.6308317 -0.119360E-07  0.401E-04    1.47      75.1  T
  19    -12.6308317 -0.126961E-08  0.163E-04    1.47     185.3  T
     SCC iter.                  ...        0 min,  0.004 sec
     gradient                   ...        0 min,  0.001 sec
 * total energy  :   -12.3948679 Eh     change       -0.4352547E-02 Eh
   gradient norm :     0.0283234 Eh/α   predicted    -0.3828262E-02 ( -12.05%)
   displ. norm   :     0.6472284 α      lambda       -0.5415272E-02
   maximum displ.:     0.3591606 α      in ANC's #11, #12, #1, ...

........................................................................
.............................. CYCLE   28 ..............................
........................................................................
   1    -12.6187489 -0.126187E+02  0.213E+00    1.45       0.0  T
   2    -12.6097979  0.895096E-02  0.152E+00    1.39       1.0  T
   3    -12.2350332  0.374765E+00  0.502E+00    1.64       1.0  T
   4    -12.5758736 -0.340840E+00  0.156E+00    1.33       1.0  T
   5    -12.6057750 -0.299014E-01  0.916E-01    1.47       1.0  T
   6    -12.6193902 -0.136152E-01  0.290E-01    1.44       1.0  T
   7    -12.6185600  0.830216E-03  0.303E-01    1.41       1.0  T
   8    -12.6188609 -0.300942E-03  0.325E-01    1.41       1.0  T
   9    -12.6194291 -0.568216E-03  0.205E-01    1.42       1.0  T
  10    -12.6198020 -0.372830E-03  0.139E-01    1.44       1.0  T
  11    -12.6198451 -0.431132E-04  0.116E-01    1.44       1.0  T
  12    -12.6198691 -0.240243E-04  0.888E-02    1.44       1.0  T
  13    -12.6198875 -0.183528E-04  0.530E-02    1.45       1.0  T
  14    -12.6198890 -0.153406E-05  0.498E-02    1.45       1.0  T
  15    -12.6199011 -0.121265E-04  0.121E-02    1.45       2.5  T
  16    -12.6199016 -0.473523E-06  0.453E-03    1.45       6.7  T
  17    -12.6199017 -0.843203E-07  0.333E-04    1.45      90.5  T
  18    -12.6199017 -0.577698E-09  0.158E-04    1.45     191.2  T
     SCC iter.                  ...        0 min,  0.004 sec
     gradient                   ...        0 min,  0.000 sec
 * total energy  :   -12.3965635 Eh     change       -0.1695639E-02 Eh
   gradient norm :     0.0502620 Eh/α   predicted    -0.3841882E-02 ( 126.57%)
   displ. norm   :     0.2944081 α      lambda       -0.4290768E-02
   maximum displ.:     0.1803108 α      in ANC's #6, #9, #12, ...

........................................................................
.............................. CYCLE   29 ..............................
........................................................................
   1    -12.6422365 -0.126422E+02  0.589E-01    1.52       0.0  T
   2    -12.6373218  0.491474E-02  0.534E-01    1.52       1.0  T
   3    -12.6196977  0.176241E-01  0.963E-01    1.48       1.0  T
   4    -12.6391001 -0.194024E-01  0.399E-01    1.51       1.0  T
   5    -12.6416500 -0.254990E-02  0.163E-01    1.51       1.0  T
   6    -12.6425296 -0.879586E-03  0.486E-02    1.51       1.0  T
   7    -12.6424761  0.535539E-04  0.601E-02    1.51       1.0  T
   8    -12.6424711  0.495460E-05  0.602E-02    1.52       1.0  T
   9    -12.6425462 -0.750719E-04  0.138E-02    1.51       2.2  T
  10    -12.6425487 -0.251280E-05  0.588E-03    1.51       5.1  T
  11    -12.6425490 -0.353239E-06  0.260E-03    1.51      11.6  T
  12    -12.6425490  0.627983E-07  0.206E-03    1.51      14.7  T
  13    -12.6425491 -0.110891E-06  0.509E-04    1.51      59.3  T
  14    -12.6425491 -0.183596E-08  0.186E-04    1.51     161.9  T
     SCC iter.                  ...        0 min,  0.003 sec
     gradient                   ...        0 min,  0.001 sec
 * total energy  :   -12.3983419 Eh     change       -0.1778392E-02 Eh
   gradient norm :     0.0253150 Eh/α   predicted    -0.2331334E-02 (  31.09%)
   displ. norm   :     0.1782705 α      lambda       -0.1753759E-02
   maximum displ.:     0.0941772 α      in ANC's #3, #10, #12, ...

........................................................................
.............................. CYCLE   30 ..............................
........................................................................
   1    -12.6350854 -0.126351E+02  0.667E-01    1.49       0.0  T
   2    -12.6327386  0.234678E-02  0.455E-01    1.53       1.0  T
   3    -12.6037230  0.290155E-01  0.117E+00    1.44       1.0  T
   4    -12.6307436 -0.270206E-01  0.455E-01    1.45       1.0  T
   5    -12.6330867 -0.234308E-02  0.264E-01    1.49       1.0  T
   6    -12.6351141 -0.202740E-02  0.959E-02    1.51       1.0  T
   7    -12.6352648 -0.150670E-03  0.752E-02    1.50       1.0  T
   8    -12.6353215 -0.567668E-04  0.465E-02    1.50       1.0  T
   9    -12.6353360 -0.145167E-04  0.135E-02    1.51       2.2  T
  10    -12.6353395 -0.346043E-05  0.818E-03    1.51       3.7  T
  11    -12.6353392  0.265781E-06  0.650E-03    1.51       4.6  T
  12    -12.6353399 -0.626168E-06  0.259E-03    1.51      11.7  T
  13    -12.6353400 -0.167689E-06  0.808E-04    1.51      37.3  T
  14    -12.6353400 -0.605746E-08  0.135E-04    1.51     222.9  T
     SCC iter.                  ...        0 min,  0.003 sec
     gradient                   ...        0 min,  0.001 sec
 * total energy  :   -12.3993825 Eh     change       -0.1040552E-02 Eh
   gradient norm :     0.0125232 Eh/α   predicted    -0.9047470E-03 ( -13.05%)
   displ. norm   :     0.3354658 α      lambda       -0.1881561E-02
   maximum displ.:     0.1618138 α      in ANC's #8, #11, #12, ...

........................................................................
.............................. CYCLE   31 ..............................
........................................................................
   1    -12.6262245 -0.126262E+02  0.163E+00    1.47       0.0  T
   2    -12.6261513  0.731177E-04  0.111E+00    1.51       1.0  T
   3    -12.6163429  0.980845E-02  0.686E-01    1.37       1.0  T
   4    -12.6235564 -0.721353E-02  0.325E-01    1.49       1.0  T
   5    -12.6251193 -0.156284E-02  0.222E-01    1.50       1.0  T
   6    -12.6260899 -0.970669E-03  0.124E-01    1.51       1.0  T
   7    -12.6262415 -0.151536E-03  0.861E-02    1.49       1.0  T
   8    -12.6262608 -0.193163E-04  0.934E-02    1.50       1.0  T
   9    -12.6263934 -0.132598E-03  0.190E-02    1.50       1.6  T
  10    -12.6263964 -0.304780E-05  0.110E-02    1.50       2.7  T
  11    -12.6263975 -0.103623E-05  0.361E-03    1.50       8.3  T
  12    -12.6263975 -0.458120E-07  0.190E-03    1.50      15.9  T
  13    -12.6263975 -0.393367E-07  0.668E-04    1.50      45.1  T
  14    -12.6263976 -0.474686E-08  0.420E-04    1.50      71.8  T
     SCC iter.                  ...        0 min,  0.003 sec
     gradient                   ...        0 min,  0.001 sec
 * total energy  :   -12.4000694 Eh     change       -0.6868967E-03 Eh
   gradient norm :     0.0349209 Eh/α   predicted    -0.1046657E-02 (  52.37%)
   displ. norm   :     0.1025640 α      lambda       -0.1496433E-02
   maximum displ.:     0.0426529 α      in ANC's #3, #22, #12, ...

........................................................................
.............................. CYCLE   32 ..............................
........................................................................
   1    -12.6320730 -0.126321E+02  0.502E-01    1.52       0.0  T
   2    -12.6301543  0.191875E-02  0.444E-01    1.48       1.0  T
   3    -12.6254095  0.474479E-02  0.609E-01    1.56       1.0  T
   4    -12.6237852  0.162433E-02  0.471E-01    1.51       1.0  T
   5    -12.6310978 -0.731259E-02  0.200E-01    1.49       1.0  T
   6    -12.6321708 -0.107306E-02  0.751E-02    1.51       1.0  T
   7    -12.6322564 -0.855557E-04  0.417E-02    1.50       1.0  T
   8    -12.6322868 -0.304046E-04  0.221E-02    1.51       1.4  T
   9    -12.6322920 -0.525813E-05  0.110E-02    1.51       2.8  T
  10    -12.6322942 -0.214516E-05  0.443E-03    1.51       6.8  T
  11    -12.6322943 -0.150405E-06  0.308E-03    1.51       9.8  T
  12    -12.6322945 -0.122706E-06  0.106E-03    1.51      28.3  T
  13    -12.6322945 -0.129198E-07  0.364E-04    1.51      82.7  T
  14    -12.6322945 -0.216110E-08  0.113E-04    1.51     267.2  T
     SCC iter.                  ...        0 min,  0.003 sec
     gradient                   ...        0 min,  0.001 sec
 * total energy  :   -12.4010143 Eh     change       -0.9449021E-03 Eh
   gradient norm :     0.0134947 Eh/α   predicted    -0.7560883E-03 ( -19.98%)
   displ. norm   :     0.2500317 α      lambda       -0.1280513E-02
   maximum displ.:     0.1094249 α      in ANC's #9, #8, #4, ...

........................................................................
.............................. CYCLE   33 ..............................
........................................................................
   1    -12.6398082 -0.126398E+02  0.113E+00    1.49       0.0  T
   2    -12.6359125  0.389567E-02  0.875E-01    1.45       1.0  T
   3    -12.5771664  0.587461E-01  0.205E+00    1.64       1.0  T
   4    -12.6293959 -0.522295E-01  0.735E-01    1.42       1.0  T
   5    -12.6284857  0.910158E-03  0.608E-01    1.49       1.0  T
   6    -12.6366895 -0.820374E-02  0.341E-01    1.50       1.0  T
   7    -12.6403036 -0.361416E-02  0.112E-01    1.50       1.0  T
   8    -12.6400236  0.280042E-03  0.128E-01    1.48       1.0  T
   9    -12.6403118 -0.288220E-03  0.515E-02    1.49       1.0  T
  10    -12.6403764 -0.646068E-04  0.206E-02    1.49       1.5  T
  11    -12.6403832 -0.677854E-05  0.102E-02    1.49       3.0  T
  12    -12.6403837 -0.532298E-06  0.507E-03    1.49       5.9  T
  13    -12.6403840 -0.226006E-06  0.239E-03    1.49      12.6  T
  14    -12.6403839  0.114694E-07  0.193E-03    1.49      15.6  T
  15    -12.6403840 -0.767014E-07  0.531E-04    1.49      56.8  T
  16    -12.6403840 -0.296879E-08  0.204E-04    1.49     147.6  T
     SCC iter.                  ...        0 min,  0.003 sec
     gradient                   ...        0 min,  0.000 sec
 * total energy  :   -12.4018811 Eh     change       -0.8667945E-03 Eh
   gradient norm :     0.0110502 Eh/α   predicted    -0.6802816E-03 ( -21.52%)
   displ. norm   :     0.4034572 α      lambda       -0.1665931E-02
   maximum displ.:     0.2082720 α      in ANC's #8, #9, #22, ...

........................................................................
.............................. CYCLE   34 ..............................
........................................................................
   1    -12.6395781 -0.126396E+02  0.186E+00    1.46       0.0  T
   2    -12.6367852  0.279294E-02  0.122E+00    1.43       1.0  T
   3    -12.2556431  0.381142E+00  0.452E+00    1.54       1.0  T
   4    -12.6258065 -0.370163E+00  0.780E-01    1.40       1.0  T
   5    -12.6219222  0.388428E-02  0.784E-01    1.44       1.0  T
   6    -12.6374711 -0.155489E-01  0.359E-01    1.46       1.0  T
   7    -12.6400159 -0.254484E-02  0.189E-01    1.46       1.0  T
   8    -12.6395863  0.429570E-03  0.210E-01    1.44       1.0  T
   9    -12.6397303 -0.143943E-03  0.110E-01    1.46       1.0  T
  10    -12.6400173 -0.286981E-03  0.390E-02    1.46       1.0  T
  11    -12.6400301 -0.128334E-04  0.295E-02    1.46       1.0  T
  12    -12.6400340 -0.388282E-05  0.115E-02    1.46       2.6  T
  13    -12.6400352 -0.121072E-05  0.674E-03    1.46       4.5  T
  14    -12.6400355 -0.282714E-06  0.322E-03    1.46       9.4  T
  15    -12.6400356 -0.118754E-06  0.166E-03    1.46      18.1  T
  16    -12.6400356 -0.133390E-07  0.107E-03    1.46      28.3  T
  17    -12.6400356 -0.954224E-08  0.560E-04    1.46      53.9  T
  18    -12.6400356 -0.263323E-08  0.178E-04    1.46     169.4  T
     SCC iter.                  ...        0 min,  0.004 sec
     gradient                   ...        0 min,  0.000 sec
 * total energy  :   -12.4028533 Eh     change       -0.9722540E-03 Eh
   gradient norm :     0.0183345 Eh/α   predicted    -0.9685477E-03 (  -0.38%)
   displ. norm   :     0.1773770 α      lambda       -0.8289078E-03
   maximum displ.:     0.1150645 α      in ANC's #9, #3, #15, ...

........................................................................
.............................. CYCLE   35 ..............................
........................................................................
   1    -12.6479594 -0.126480E+02  0.454E-01    1.48       0.0  T
   2    -12.6450562  0.290318E-02  0.471E-01    1.42       1.0  T
   3    -12.6429764  0.207984E-02  0.605E-01    1.51       1.0  T
   4    -12.6456292 -0.265281E-02  0.317E-01    1.46       1.0  T
   5    -12.6472616 -0.163244E-02  0.171E-01    1.46       1.0  T
   6    -12.6479188 -0.657135E-03  0.109E-01    1.46       1.0  T
   7    -12.6482238 -0.305050E-03  0.370E-02    1.47       1.0  T
   8    -12.6482264 -0.262664E-05  0.272E-02    1.46       1.1  T
   9    -12.6482291 -0.270053E-05  0.112E-02    1.46       2.7  T
  10    -12.6482316 -0.246470E-05  0.603E-03    1.46       5.0  T
  11    -12.6482320 -0.351595E-06  0.391E-03    1.46       7.7  T
  12    -12.6482321 -0.128771E-06  0.171E-03    1.46      17.7  T
  13    -12.6482321 -0.556003E-07  0.467E-04    1.46      64.6  T
  14    -12.6482322 -0.223470E-08  0.694E-05    1.46     434.3  T
     SCC iter.                  ...        0 min,  0.003 sec
     gradient                   ...        0 min,  0.001 sec
 * total energy  :   -12.4030970 Eh     change       -0.2437096E-03 Eh
   gradient norm :     0.0176412 Eh/α   predicted    -0.4274929E-03 (  75.41%)
   displ. norm   :     0.3985268 α      lambda       -0.1548051E-02
   maximum displ.:     0.2488396 α      in ANC's #9, #22, #8, ...

........................................................................
.............................. CYCLE   36 ..............................
........................................................................
   1    -12.6430126 -0.126430E+02  0.163E+00    1.39       0.0  T
   2    -12.6116376  0.313751E-01  0.146E+00    1.31       1.0  T
   3    -12.2715336  0.340104E+00  0.384E+00    1.19       1.0  T
   4    -12.6278703 -0.356337E+00  0.940E-01    1.39       1.0  T
   5    -12.6103226  0.175477E-01  0.110E+00    1.32       1.0  T
   6    -12.6378046 -0.274820E-01  0.511E-01    1.39       1.0  T
   7    -12.6435776 -0.577299E-02  0.314E-01    1.38       1.0  T
   8    -12.6437218 -0.144191E-03  0.290E-01    1.37       1.0  T
   9    -12.6447474 -0.102558E-02  0.192E-01    1.38       1.0  T
  10    -12.6447133  0.340856E-04  0.980E-02    1.39       1.0  T
  11    -12.6447613 -0.480059E-04  0.684E-02    1.39       1.0  T
  12    -12.6447995 -0.381940E-04  0.313E-02    1.39       1.0  T
  13    -12.6448030 -0.351988E-05  0.157E-02    1.39       1.9  T
  14    -12.6448042 -0.118705E-05  0.854E-03    1.39       3.5  T
  15    -12.6448047 -0.537684E-06  0.525E-03    1.39       5.7  T
  16    -12.6448049 -0.177770E-06  0.360E-04    1.39      83.9  T
  17    -12.6448049  0.551033E-09  0.263E-04    1.39     114.6  T
     SCC iter.                  ...        0 min,  0.003 sec
     gradient                   ...        0 min,  0.001 sec
 * total energy  :   -12.4034336 Eh     change       -0.3365401E-03 Eh
   gradient norm :     0.0264697 Eh/α   predicted    -0.8969613E-03 ( 166.52%)
   displ. norm   :     0.1901593 α      lambda       -0.1513677E-02
   maximum displ.:     0.0716807 α      in ANC's #3, #2, #11, ...

........................................................................
.............................. CYCLE   37 ..............................
........................................................................
   1    -12.6468068 -0.126468E+02  0.664E-01    1.40       0.0  T
   2    -12.6126239  0.341829E-01  0.127E+00    1.44       1.0  T
   3    -12.6374208 -0.247969E-01  0.758E-01    1.35       1.0  T
   4    -12.6355158  0.190497E-02  0.653E-01    1.37       1.0  T
   5    -12.6411302 -0.561440E-02  0.431E-01    1.43       1.0  T
   6    -12.6472497 -0.611945E-02  0.265E-01    1.40       1.0  T
   7    -12.6474351 -0.185423E-03  0.209E-01    1.40       1.0  T
   8    -12.6475281 -0.930265E-04  0.199E-01    1.40       1.0  T
   9    -12.6479595 -0.431413E-03  0.787E-02    1.41       1.0  T
  10    -12.6480100 -0.504887E-04  0.238E-02    1.41       1.3  T
  11    -12.6480134 -0.337910E-05  0.151E-02    1.41       2.0  T
  12    -12.6480151 -0.172211E-05  0.397E-03    1.41       7.6  T
  13    -12.6480152 -0.857131E-07  0.147E-03    1.41      20.5  T
  14    -12.6480152 -0.154139E-07  0.541E-04    1.41      55.7  T
  15    -12.6480152 -0.378849E-08  0.211E-04    1.41     142.7  T
     SCC iter.                  ...        0 min,  0.003 sec
     gradient                   ...        0 min,  0.001 sec
[...]
     SCC iter.                  ...        0 min,  0.002 sec
     gradient                   ...        0 min,  0.001 sec
 * total energy  :   -12.5582298 Eh     change       -0.9118100E-05 Eh
   gradient norm :     0.0020755 Eh/α   predicted    -0.8985907E-05 (  -1.45%)
   displ. norm   :     0.0212045 α      lambda       -0.1368101E-04
   maximum displ.:     0.0122745 α      in ANC's #2, #5, #4, ...

........................................................................
.............................. CYCLE  105 ..............................
........................................................................
   1    -12.7881147 -0.127881E+02  0.690E-02    1.32       0.0  T
   2    -12.7881117  0.302621E-05  0.471E-02    1.32       1.0  T
   3    -12.7879961  0.115592E-03  0.820E-02    1.33       1.0  T
   4    -12.7880453 -0.492865E-04  0.471E-02    1.32       1.0  T
   5    -12.7881118 -0.664925E-04  0.108E-02    1.32       2.8  T
   6    -12.7881146 -0.273586E-05  0.699E-03    1.32       4.3  T
   7    -12.7881154 -0.866358E-06  0.278E-03    1.32      10.8  T
   8    -12.7881156 -0.191557E-06  0.904E-04    1.32      33.3  T
   9    -12.7881156 -0.881667E-08  0.375E-04    1.32      80.3  T
     SCC iter.                  ...        0 min,  0.002 sec
     gradient                   ...        0 min,  0.000 sec
 * total energy  :   -12.5582380 Eh     change       -0.8254002E-05 Eh
   gradient norm :     0.0007805 Eh/α   predicted    -0.6843374E-05 ( -17.09%)
   displ. norm   :     0.0194726 α      lambda       -0.3710046E-05
   maximum displ.:     0.0094650 α      in ANC's #2, #4, #5, ...

........................................................................
.............................. CYCLE  106 ..............................
........................................................................
   1    -12.7881102 -0.127881E+02  0.613E-02    1.32       0.0  T
   2    -12.7881091  0.104973E-05  0.401E-02    1.32       1.0  T
   3    -12.7879579  0.151185E-03  0.821E-02    1.33       1.0  T
   4    -12.7880764 -0.118447E-03  0.298E-02    1.32       1.0  T
   5    -12.7881100 -0.336212E-04  0.559E-03    1.32       5.4  T
   6    -12.7881100 -0.369413E-07  0.471E-03    1.32       6.4  T
   7    -12.7881103 -0.286755E-06  0.254E-03    1.32      11.8  T
   8    -12.7881105 -0.164582E-06  0.312E-04    1.32      96.6  T
   9    -12.7881105 -0.475229E-09  0.184E-04    1.32     163.5  T
     SCC iter.                  ...        0 min,  0.002 sec
     gradient                   ...        0 min,  0.001 sec
 * total energy  :   -12.5582409 Eh     change       -0.2901239E-05 Eh
   gradient norm :     0.0007594 Eh/α   predicted    -0.1856783E-05 ( -36.00%)
   displ. norm   :     0.0117058 α      lambda       -0.1357466E-05
   maximum displ.:     0.0085421 α      in ANC's #1, #5, #16, ...

   *** GEOMETRY OPTIMIZATION CONVERGED AFTER 106 ITERATIONS ***

------------------------------------------------------------------------
 total energy gain   :        -1.0037191 Eh     -629.8432 kcal/mol
 total RMSD          :         2.5874945 a0        1.3692 Å
 total power (kW/mol):       -24.8609815 (step)-6161.3054 (real)
------------------------------------------------------------------------

 ANCopt (total)                0 d,  0 h,  0 min,  0.428 sec
 optimizer setup                ...        0 min,  0.000 sec (  0.008%)
 model hessian                  ...        0 min,  0.001 sec (  0.183%)
 ANC generation                 ...        0 min,  0.000 sec (  0.096%)
 coordinate transformation      ...        0 min,  0.000 sec (  0.063%)
 single point calculation       ...        0 min,  0.417 sec ( 97.452%)
 optimization log               ...        0 min,  0.003 sec (  0.772%)
 hessian update                 ...        0 min,  0.002 sec (  0.573%)
 rational function              ...        0 min,  0.002 sec (  0.472%)

================
 final structure:
================
11
 xtb: 6.5.1 (conda-forge)
Be           0.30709645454884        0.26380324398021       -1.26119379586367
B            0.55894334645972        0.31003721840005        0.37735261067241
B            0.77951220409335        0.35179914380652        1.85316711530822
B            0.99987186392424        0.39457637434857        3.36778912047198
C            1.19986553061158        0.43858425973713        4.75053392050343
C            0.67645263203231        0.69953631094745        6.11639044505908
C            2.09120212562334        0.25470115461158        5.92501885503933
H            2.36276432152284       -0.75466038588236        6.21798596880709
H            2.88916014661198        0.97197066201494        6.08904160178950
H            0.49072256319073        1.72667542461104        6.41329803249227
H           -0.03559118861878        0.00033359361392        6.54311612571386

 Bond Distances (Angstroems)
 ---------------------------
Be1-B2=1.6584        B2-Be1=1.6584        B2-B3=1.4928         B3-B2=1.4928         B3-B4=1.5312         B4-B3=1.5312         
B4-C5=1.3978         C5-B4=1.3978         C5-C6=1.4858         C5-C7=1.4858         C6-C5=1.4858         C6-C7=1.4953         
C6-H10=1.0852        C6-H11=1.0854        C7-C5=1.4858         C7-C6=1.4953         C7-H8=1.0855         C7-H9=1.0854         
H8-C7=1.0855         H9-C7=1.0854         H10-C6=1.0852        H11-C6=1.0854        
 B  Be Rav=1.6584 sigma=0.0000  Rmin=1.6584  Rmax=1.6584     1
 B  B  Rav=1.5120 sigma=0.0192  Rmin=1.4928  Rmax=1.5312     2
 C  H  Rav=1.0854 sigma=0.0001  Rmin=1.0852  Rmax=1.0855     4
 C  B  Rav=1.3978 sigma=0.0000  Rmin=1.3978  Rmax=1.3978     1
 C  C  Rav=1.4890 sigma=0.0045  Rmin=1.4858  Rmax=1.4953     3

 selected bond angles (degree)
 --------------------
B3-B2-Be1=179.76               B4-B3-B2=179.78                C5-B4-B3=179.79                C6-C5-B4=149.82                
C7-C5-B4=149.75                C7-C5-C6= 60.42                C7-C6-C5= 59.79                H10-C6-C5=118.56               
H10-C6-C7=118.59               H11-C6-C5=118.65               H11-C6-C7=118.64               H11-C6-H10=112.95              
C6-C7-C5= 59.79                H8-C7-C5=118.59                H8-C7-C6=118.60                H9-C7-C5=118.60                
H9-C7-C6=118.66                H9-C7-H8=112.94                

 selected dihedral angles (degree)
 ---------------------------------
B4-B3-B2-Be1=  1.90           C5-B4-B3-B2=282.68            C6-C5-B4-B3= 59.57            C7-C5-B4-B3=239.31            
C7-C6-C5-B4=179.85            H10-C6-C5-B4=288.12           H10-C6-C5-C7=108.27           H11-C6-C5-B4= 71.55           
H11-C6-C5-C7=251.70           C6-C7-C5-B4=180.15            H8-C7-C5-B4=288.43            H8-C7-C5-C6=108.28            
H9-C7-C5-B4= 71.81            H9-C7-C5-C6=251.66            C5-C7-C6-H10=251.78           C5-C7-C6-H11=108.30           
H8-C7-C6-C5=251.75            H8-C7-C6-H10=143.53           H8-C7-C6-H11=  0.06           H9-C7-C6-C5=108.24            
H9-C7-C6-H10=  0.00           H9-C7-C6-H11=216.54           

 CMA Distance (Angstroems)
 ---------------------------
R(CMA):  5.2890
           -------------------------------------------------
          |                Final Singlepoint                |
           -------------------------------------------------

          ...................................................
          :                      SETUP                      :
          :.................................................:
          :  # basis functions                  32          :
          :  # atomic orbitals                  32          :
          :  # shells                           18          :
          :  # electrons                        27          :
          :  max. iterations                   250          :
          :  Hamiltonian                  GFN2-xTB          :
          :  restarted?                      false          :
          :  GBSA solvation                  false          :
          :  PC potential                    false          :
          :  electronic temp.          300.0000000     K    :
          :  accuracy                    1.0000000          :
          :  -> integral cutoff          0.2500000E+02      :
          :  -> integral neglect         0.1000000E-07      :
          :  -> SCF convergence          0.1000000E-05 Eh   :
          :  -> wf. convergence          0.1000000E-03 e    :
          :  Broyden damping             0.4000000          :
          ...................................................

 iter      E             dE          RMSdq      gap      omega  full diag
   1    -12.7881105 -0.127881E+02  0.106E-04    1.32       0.0  T
   2    -12.7881105  0.338039E-09  0.138E-04    1.32     218.6  T
   3    -12.7881105  0.350466E-09  0.164E-04    1.32     183.8  T

   *** convergence criteria satisfied after 3 iterations ***

         #    Occupation            Energy/Eh            Energy/eV
      -------------------------------------------------------------
         1        2.0000           -0.5764296             -15.6854
       ...           ...                  ...                  ...
         8        2.0000           -0.3664338              -9.9712
         9        2.0000           -0.3599701              -9.7953
        10        2.0000           -0.3381662              -9.2020
        11        2.0000           -0.2916369              -7.9358
        12        2.0000           -0.2837185              -7.7204
        13        1.9989           -0.2527527              -6.8778
        14        1.0011           -0.2398357              -6.5263 (HOMO)
        15                         -0.1912748              -5.2049 (LUMO)
        16                         -0.1803408              -4.9073
        17                         -0.1598304              -4.3492
        18                         -0.1026176              -2.7924
        19                         -0.0624067              -1.6982
       ...                                ...                  ...
        32                          1.2974624              35.3057
      -------------------------------------------------------------
                  HL-Gap            0.0485608 Eh            1.3214 eV
             Fermi-level           -0.2309247 Eh           -6.2838 eV

 SCC (total)                   0 d,  0 h,  0 min,  0.001 sec
 SCC setup                      ...        0 min,  0.000 sec (  3.576%)
 Dispersion                     ...        0 min,  0.000 sec (  6.031%)
 classical contributions        ...        0 min,  0.000 sec (  2.686%)
 integral evaluation            ...        0 min,  0.000 sec ( 11.421%)
 iterations                     ...        0 min,  0.000 sec ( 33.784%)
 molecular gradient             ...        0 min,  0.001 sec ( 39.014%)
 printout                       ...        0 min,  0.000 sec (  2.758%)

         :::::::::::::::::::::::::::::::::::::::::::::::::::::
         ::                     SUMMARY                     ::
         :::::::::::::::::::::::::::::::::::::::::::::::::::::
         :: total energy             -12.558240905550 Eh    ::
         :: gradient norm              0.000759604234 Eh/a0 ::
         :: HOMO-LUMO gap              1.321407303192 eV    ::
         ::.................................................::
         :: SCC energy               -12.788110479097 Eh    ::
         :: -> isotropic ES            0.018423789398 Eh    ::
         :: -> anisotropic ES          0.003838214526 Eh    ::
         :: -> anisotropic XC         -0.021673256292 Eh    ::
         :: -> dispersion             -0.006588775068 Eh    ::
         :: repulsion energy           0.229900498867 Eh    ::
         :: add. restraining           0.000000000000 Eh    ::
         :: total charge               0.000000000000 e     ::
         :::::::::::::::::::::::::::::::::::::::::::::::::::::

           -------------------------------------------------
          |                Property Printout                |
           -------------------------------------------------

    * Orbital Energies and Occupations

         #    Occupation            Energy/Eh            Energy/eV
      -------------------------------------------------------------
         1        2.0000           -0.5764296             -15.6854
         2        2.0000           -0.5139581             -13.9855
         3        2.0000           -0.4855085             -13.2114
         4        2.0000           -0.4645162             -12.6401
         5        2.0000           -0.4294262             -11.6853
         6        2.0000           -0.4011527             -10.9159
         7        2.0000           -0.3829977             -10.4219
         8        2.0000           -0.3664338              -9.9712
         9        2.0000           -0.3599701              -9.7953
        10        2.0000           -0.3381662              -9.2020
        11        2.0000           -0.2916369              -7.9358
        12        2.0000           -0.2837185              -7.7204
        13        1.9989           -0.2527527              -6.8778
        14        1.0011           -0.2398357              -6.5263 (HOMO)
        15                         -0.1912748              -5.2049 (LUMO)
        16                         -0.1803408              -4.9073
        17                         -0.1598304              -4.3492
        18                         -0.1026176              -2.7924
        19                         -0.0624067              -1.6982
        20                          0.0144503               0.3932
        21                          0.0586443               1.5958
        22                          0.0885663               2.4100
        23                          0.1787211               4.8632
        24                          0.1908175               5.1924
        25                          0.2465655               6.7094
       ...                                ...                  ...
        32                          1.2974624              35.3057
      -------------------------------------------------------------
                  HL-Gap            0.0485608 Eh            1.3214 eV
             Fermi-level           -0.2309247 Eh           -6.2838 eV

     #   Z          covCN         q      C6AA      α(0)
     1   4 Be       0.912     0.322    69.175    24.945
     2   5 B        1.891    -0.135    49.701    14.843
     3   5 B        1.956    -0.013    44.588    14.043
     4   5 B        1.885     0.072    41.878    13.626
     5   6 C        2.863    -0.140    31.593     9.213
     6   6 C        3.805    -0.049    21.449     6.593
     7   6 C        3.805    -0.049    21.448     6.593
     8   1 H        0.925    -0.002     3.097     2.752
     9   1 H        0.925    -0.002     3.096     2.752
    10   1 H        0.925    -0.002     3.095     2.751
    11   1 H        0.925    -0.002     3.096     2.752

 Mol. C6AA /au·bohr⁶  :       2405.846660
 Mol. C8AA /au·bohr⁸  :      77956.540562
 Mol. α(0) /au        :        100.863521


Wiberg/Mayer (AO) data.
largest (>0.10) Wiberg bond orders for each atom

 ---------------------------------------------------------------------------
     #   Z sym  total        # sym  WBO       # sym  WBO       # sym  WBO
 ---------------------------------------------------------------------------
     1   4 Be   1.755 --     2 B    1.364     3 B    0.322
     2   5 B    3.216 --     3 B    1.649     1 Be   1.364     4 B    0.200
     3   5 B    3.372 --     2 B    1.649     4 B    1.294     1 Be   0.322
     4   5 B    3.443 --     5 C    1.758     3 B    1.294     2 B    0.200
     5   6 C    3.719 --     4 B    1.758     6 C    0.935     7 C    0.935
     6   6 C    3.927 --     7 C    1.004    10 H    0.971    11 H    0.971
                             5 C    0.935
     7   6 C    3.927 --     6 C    1.004     9 H    0.971     8 H    0.971
                             5 C    0.935
     8   1 H    0.996 --     7 C    0.971
     9   1 H    0.996 --     7 C    0.971
    10   1 H    0.996 --     6 C    0.971
    11   1 H    0.996 --     6 C    0.971
 ---------------------------------------------------------------------------

Topologies differ in total number of bonds
Writing topology from bond orders to xtbtopo.mol

molecular dipole:
                 x           y           z       tot (Debye)
 q only:       -0.436      -0.085      -2.930
   full:       -0.569      -0.107      -3.757       9.663
molecular quadrupole (traceless):
                xx          xy          yy          xz          yz          zz
 q only:        8.953      -0.533      10.949      -8.659      -3.417     -19.902
  q+dip:       -1.545      -0.246       0.992      -5.172      -3.283       0.552
   full:        1.657      -0.189       4.718      -6.714      -3.605      -6.375

           -------------------------------------------------
          |                Geometry Summary                 |
           -------------------------------------------------

      molecular mass/u    :       81.5092379
   center of mass at/Å    :        0.9993046       0.3985674       3.3898616
  moments of inertia/u·Å² :        0.2320874E+02   0.5570953E+03   0.5737028E+03
Note: The following floating-point exceptions are signalling: IEEE_UNDERFLOW_FLAG
normal termination of xtb
rotational constants/cm⁻¹ :        0.7263483E+00   0.3025987E-01   0.2938391E-01

 * 9 selected distances

     #   Z          #   Z                                           value/Å
     1   4 Be       2   5 B                                       1.6584328 (max)
     2   5 B        3   5 B                                       1.4927905
     3   5 B        4   5 B                                       1.5311657
     4   5 B        5   6 C                                       1.3978261
     6   6 C        7   6 C                                       1.4953321
     7   6 C        8   1 H                                       1.0855352
     7   6 C        9   1 H                                       1.0854106
     6   6 C       10   1 H                                       1.0852026 (min)
     6   6 C       11   1 H                                       1.0853506

 * 5 distinct bonds (by element types)

   Z      Z             #   av. dist./Å        max./Å        min./Å
   4 Be   5 B           1     1.6584328     1.6584328     1.6584328
   5 B    5 B           2     1.5119781     1.5311657     1.4927905
   1 H    6 C           4     1.0853748     1.0855352     1.0852026
   5 B    6 C           1     1.3978261     1.3978261     1.3978261
   6 C    6 C           1     1.4953321     1.4953321     1.4953321


optimized geometry written to: xtbopt.xyz


           -------------------------------------------------
          | TOTAL ENERGY              -12.558240905550 Eh   |
          | GRADIENT NORM               0.000759604234 Eh/α |
          | HOMO-LUMO GAP               1.321407303192 eV   |
           -------------------------------------------------
########################################################################
[WARNING] Runtime exception occurred
-2- restart_readRestart: Dimension missmatch in restart file.
-1- restart_readRestart: Number of electron missmatch in restart file.
########################################################################

------------------------------------------------------------------------
 * finished run on 2025/06/07 at 03:27:44.531     
------------------------------------------------------------------------
 total:
 * wall-time:     0 d,  0 h,  0 min,  0.485 sec
 *  cpu-time:     0 d,  0 h,  0 min,  6.686 sec
 * ratio c/w:    13.780 speedup
 SCF:
 * wall-time:     0 d,  0 h,  0 min,  0.051 sec
 *  cpu-time:     0 d,  0 h,  0 min,  0.583 sec
 * ratio c/w:    11.408 speedup
 ANC optimizer:
 * wall-time:     0 d,  0 h,  0 min,  0.430 sec
 *  cpu-time:     0 d,  0 h,  0 min,  6.055 sec
 * ratio c/w:    14.096 speedup

