      -----------------------------------------------------------      
     |                   =====================                   |     
     |                           x T B                           |     
     |                   =====================                   |     
     |                         S. Grimme                         |     
     |          Mulliken Center for Theoretical Chemistry        |     
     |                    University of Bonn                     |     
      -----------------------------------------------------------      

   * xtb version 6.5.1 (conda-forge) compiled by 'runner@Mac-1657629245115.local' on 2022-07-12

   xtb is free software: you can redistribute it and/or modify it under
   the terms of the GNU Lesser General Public License as published by
   the Free Software Foundation, either version 3 of the License, or
   (at your option) any later version.
   
   xtb is distributed in the hope that it will be useful,
   but WITHOUT ANY WARRANTY; without even the implied warranty of
   MERCHANTABILITY or FITNESS FOR A PARTICULAR PURPOSE.  See the
   GNU Lesser General Public License for more details.
   
   Cite this work as:
   * C. Bannwarth, E. Caldeweyher, S. Ehlert, A. Hansen, P. Pracht,
     J. Seibert, S. Spicher, S. Grimme, WIREs Comput. Mol. Sci., 2020, 11,
     e01493. DOI: 10.1002/wcms.1493
   
   for GFN2-xTB:
   * C. Bannwarth, S. Ehlert and S. Grimme., J. Chem. Theory Comput., 2019,
     15, 1652-1671. DOI: 10.1021/acs.jctc.8b01176
   for GFN1-xTB:
   * S. Grimme, C. Bannwarth, P. Shushkov, J. Chem. Theory Comput., 2017,
     13, 1989-2009. DOI: 10.1021/acs.jctc.7b00118
   for GFN0-xTB:
   * P. Pracht, E. Caldeweyher, S. Ehlert, S. Grimme, ChemRxiv, 2019, preprint.
     DOI: 10.26434/chemrxiv.8326202.v1
   for GFN-FF:
   * S. Spicher and S. Grimme, Angew. Chem. Int. Ed., 2020, 59, 15665-15673.
     DOI: 10.1002/anie.202004239
   
   for ALPB and GBSA implicit solvation:
   * S. Ehlert, M. Stahn, S. Spicher, S. Grimme, J. Chem. Theory Comput.,
     2021, 17, 4250-4261. DOI: 10.1021/acs.jctc.1c00471
   
   for DFT-D4:
   * E. Caldeweyher, C. Bannwarth and S. Grimme, J. Chem. Phys., 2017,
     147, 034112. DOI: 10.1063/1.4993215
   * E. Caldeweyher, S. Ehlert, A. Hansen, H. Neugebauer, S. Spicher,
     C. Bannwarth and S. Grimme, J. Chem. Phys., 2019, 150, 154122.
     DOI: 10.1063/1.5090222
   * E. Caldeweyher, J.-M. Mewes, S. Ehlert and S. Grimme, Phys. Chem. Chem. Phys.
     2020, 22, 8499-8512. DOI: 10.1039/D0CP00502A
   
   for sTDA-xTB:
   * S. Grimme and C. Bannwarth, J. Chem. Phys., 2016, 145, 054103.
     DOI: 10.1063/1.4959605
   
   in the mass-spec context:
   * V. Asgeirsson, C. Bauer and S. Grimme, Chem. Sci., 2017, 8, 4879.
     DOI: 10.1039/c7sc00601b
   * J. Koopman and S. Grimme, ACS Omega 2019, 4, 12, 15120-15133.
     DOI: 10.1021/acsomega.9b02011
   
   for metadynamics refer to:
   * S. Grimme, J. Chem. Theory Comput., 2019, 155, 2847-2862
     DOI: 10.1021/acs.jctc.9b00143
   
   for SPH calculations refer to:
   * S. Spicher and S. Grimme, J. Chem. Theory Comput., 2021, 17, 1701-1714
     DOI: 10.1021/acs.jctc.0c01306
   
   with help from (in alphabetical order)
   P. Atkinson, C. Bannwarth, F. Bohle, G. Brandenburg, E. Caldeweyher
   M. Checinski, S. Dohm, S. Ehlert, S. Ehrlich, I. Gerasimov, C. Hölzer
   A. Katbashev, J. Koopman, C. Lavigne, S. Lehtola, F. März, M. Müller,
   F. Musil, H. Neugebauer, J. Pisarek, C. Plett, P. Pracht, F. Pultar,
   J. Seibert, P. Shushkov, S. Spicher, M. Stahn, M. Steiner, T. Strunk,
   J. Stückrath, T. Rose, and J. Unsleber
   
 * started run on 2025/06/07 at 03:27:43.523     

           -------------------------------------------------
          |                Calculation Setup                |
           -------------------------------------------------

          program call               : xtb B3BeC2H6.xyz --gfn 2 --opt
          coordinate file            : B3BeC2H6.xyz
          omp threads                :                    16

   ID    Z sym.   atoms
    1    4 Be     1
    2    5 B      2-4
    3    6 C      5, 6
    4    1 H      7-12

molecular fragmentation (1/2 indicates fragments):
122222222222
# atoms in fragment 1/2:     1    11
 fragment masses (1/2) :        9.01       62.50
CMA distance (Bohr)    :   6.560
constraining FC (au)   :  0.0500

           -------------------------------------------------
          |                 G F N 2 - x T B                 |
           -------------------------------------------------

        Reference                      10.1021/acs.jctc.8b01176
      * Hamiltonian:
        H0-scaling (s, p, d)           1.850000    2.230000    2.230000
        zeta-weighting                 0.500000
      * Dispersion:
        s8                             2.700000
        a1                             0.520000
        a2                             5.000000
        s9                             5.000000
      * Repulsion:
        kExp                           1.500000    1.000000
        rExp                           1.000000
      * Coulomb:
        alpha                          2.000000
        third order                    shell-resolved
        anisotropic                    true
        a3                             3.000000
        a5                             4.000000
        cn-shift                       1.200000
        cn-exp                         4.000000
        max-rad                        5.000000


          ...................................................
          :                      SETUP                      :
          :.................................................:
          :  # basis functions                  30          :
          :  # atomic orbitals                  30          :
          :  # shells                           18          :
          :  # electrons                        25          :
          :  max. iterations                   250          :
          :  Hamiltonian                  GFN2-xTB          :
          :  restarted?                      false          :
          :  GBSA solvation                  false          :
          :  PC potential                    false          :
          :  electronic temp.          300.0000000     K    :
          :  accuracy                    1.0000000          :
          :  -> integral cutoff          0.2500000E+02      :
          :  -> integral neglect         0.1000000E-07      :
          :  -> SCF convergence          0.1000000E-05 Eh   :
          :  -> wf. convergence          0.1000000E-03 e    :
          :  Broyden damping             0.4000000          :
          ...................................................

 iter      E             dE          RMSdq      gap      omega  full diag
   1     11.4800822  0.114801E+02  0.210E+01    0.72       0.0  T
   2      3.7211954 -0.775889E+01  0.254E+01    1.11       1.0  T
   3     -0.0734054 -0.379460E+01  0.181E+01    0.67       1.0  T
   4     -0.8750256 -0.801620E+00  0.192E+01    0.44       1.0  T
   5     -6.0940276 -0.521900E+01  0.144E+01    1.03       1.0  T
   6     -7.2190081 -0.112498E+01  0.108E+01    0.55       1.0  T
   7     -7.4917643 -0.272756E+00  0.110E+01    0.95       1.0  T
   8     -9.4777615 -0.198600E+01  0.106E+01    0.07       1.0  T
   9     -8.6826212  0.795140E+00  0.820E+00    0.95       1.0  T
  10     -8.8588605 -0.176239E+00  0.773E+00    1.05       1.0  T
  11     -9.2095224 -0.350662E+00  0.808E+00    0.63       1.0  T
  12     -8.3310771  0.878445E+00  0.102E+01    0.19       1.0  T
  13    -10.4179059 -0.208683E+01  0.542E+00    0.21       1.0  T
  14     -8.2766802  0.214123E+01  0.930E+00    0.29       1.0  T
  15     -8.9294414 -0.652761E+00  0.862E+00    0.34       1.0  T
  16     -7.2841486  0.164529E+01  0.907E+00    0.38       1.0  T
  17     -9.9284813 -0.264433E+01  0.446E+00    0.51       1.0  T
  18    -10.2748681 -0.346387E+00  0.384E+00    0.43       1.0  T
  19    -10.4883685 -0.213500E+00  0.354E+00    0.31       1.0  T
  20    -10.2142467  0.274122E+00  0.395E+00    0.43       1.0  T
  21     -8.3284678  0.188578E+01  0.766E+00    0.57       1.0  T
  22     -9.3481494 -0.101968E+01  0.657E+00    0.51       1.0  T
  23     -9.6526947 -0.304545E+00  0.598E+00    0.48       1.0  T
  24     -9.0257849  0.626910E+00  0.700E+00    0.52       1.0  T
  25    -10.5538827 -0.152810E+01  0.266E+00    0.31       1.0  T
  26    -10.3541005  0.199782E+00  0.367E+00    0.38       1.0  T
  27    -10.5938258 -0.239725E+00  0.230E+00    0.29       1.0  T
  28    -10.7299202 -0.136094E+00  0.139E+00    0.20       1.0  T
  29    -10.6536531  0.762672E-01  0.321E+00    0.21       1.0  T
  30    -10.6252981  0.283549E-01  0.336E+00    0.23       1.0  T
  31    -10.6018332  0.234649E-01  0.338E+00    0.24       1.0  T
  32    -10.5615159  0.403173E-01  0.356E+00    0.27       1.0  T
  33    -10.6239258 -0.624099E-01  0.325E+00    0.23       1.0  T
  34    -10.6162704  0.765534E-02  0.311E+00    0.23       1.0  T
  35    -10.6503159 -0.340455E-01  0.268E+00    0.21       1.0  T
  36    -10.6385890  0.117269E-01  0.253E+00    0.22       1.0  T
  37    -10.6434169 -0.482789E-02  0.223E+00    0.22       1.0  T
  38    -10.6559022 -0.124854E-01  0.194E+00    0.22       1.0  T
  39    -10.6960051 -0.401029E-01  0.144E+00    0.19       1.0  T
  40    -10.6939196  0.208556E-02  0.145E+00    0.19       1.0  T
  41    -10.7174663 -0.235467E-01  0.113E+00    0.18       1.0  T
  42    -10.7236316 -0.616529E-02  0.101E+00    0.18       1.0  T
  43    -10.7280327 -0.440114E-02  0.931E-01    0.17       1.0  T
  44    -10.7379620 -0.992926E-02  0.599E-01    0.17       1.0  T
  45    -10.7419285 -0.396649E-02  0.383E-01    0.16       1.0  T
  46    -10.7427399 -0.811438E-03  0.319E-01    0.16       1.0  T
  47    -10.7435476 -0.807649E-03  0.219E-01    0.16       1.0  T
  48    -10.7429980  0.549575E-03  0.255E-01    0.16       1.0  T
  49    -10.7427424  0.255625E-03  0.333E-01    0.17       1.0  T
  50    -10.7426789  0.634872E-04  0.291E-01    0.17       1.0  T
  51    -10.7427370 -0.580732E-04  0.255E-01    0.17       1.0  T
  52    -10.7431663 -0.429310E-03  0.200E-01    0.17       1.0  T
  53    -10.7434109 -0.244595E-03  0.167E-01    0.17       1.0  T
  54    -10.7435200 -0.109139E-03  0.148E-01    0.17       1.0  T
  55    -10.7435608 -0.408040E-04  0.119E-01    0.17       1.0  T
  56    -10.7436033 -0.424521E-04  0.901E-02    0.17       1.0  T
  57    -10.7435959  0.735082E-05  0.687E-02    0.17       1.0  T
  58    -10.7436037 -0.775075E-05  0.580E-02    0.17       1.0  T
  59    -10.7436383 -0.346516E-04  0.406E-02    0.17       1.0  T
  60    -10.7436550 -0.166803E-04  0.305E-02    0.17       1.0  T
  61    -10.7436688 -0.137688E-04  0.232E-02    0.17       1.2  T
  62    -10.7436783 -0.954520E-05  0.141E-02    0.17       2.0  T
  63    -10.7436803 -0.201018E-05  0.674E-03    0.17       4.3  T
  64    -10.7436803  0.487953E-07  0.517E-03    0.17       5.6  T
  65    -10.7436802  0.101792E-07  0.242E-03    0.17      11.9  T
  66    -10.7436803 -0.469663E-07  0.185E-03    0.17      15.6  T
  67    -10.7436803 -0.245921E-07  0.116E-03    0.17      24.9  T
  68    -10.7436803 -0.138222E-08  0.926E-04    0.17      31.2  T
  69    -10.7436804 -0.275308E-07  0.409E-04    0.17      70.5  T

   *** convergence criteria satisfied after 69 iterations ***

         #    Occupation            Energy/Eh            Energy/eV
      -------------------------------------------------------------
         1        2.0000           -0.5768897             -15.6980
       ...           ...                  ...                  ...
         7        2.0000           -0.3296947              -8.9714
         8        2.0000           -0.3192202              -8.6864
         9        2.0000           -0.3048257              -8.2947
        10        2.0000           -0.2946351              -8.0174
        11        2.0000           -0.2866647              -7.8005
        12        2.0000           -0.2722799              -7.4091
        13        0.9619           -0.2491519              -6.7798 (HOMO)
        14        0.0381           -0.2430180              -6.6129 (LUMO)
        15                         -0.2222559              -6.0479
        16                         -0.2191861              -5.9644
        17                         -0.2084679              -5.6727
        18                         -0.1910876              -5.1998
       ...                                ...                  ...
        30                          0.7913135              21.5327
      -------------------------------------------------------------
                  HL-Gap            0.0061338 Eh            0.1669 eV
             Fermi-level           -0.2534008 Eh           -6.8954 eV

 SCC (total)                   0 d,  0 h,  0 min,  0.016 sec
 SCC setup                      ...        0 min,  0.000 sec (  0.554%)
 Dispersion                     ...        0 min,  0.000 sec (  0.774%)
 classical contributions        ...        0 min,  0.000 sec (  0.282%)
 integral evaluation            ...        0 min,  0.000 sec (  1.048%)
 iterations                     ...        0 min,  0.015 sec ( 93.516%)
 molecular gradient             ...        0 min,  0.001 sec (  3.424%)
 printout                       ...        0 min,  0.000 sec (  0.333%)

         :::::::::::::::::::::::::::::::::::::::::::::::::::::
         ::                     SUMMARY                     ::
         :::::::::::::::::::::::::::::::::::::::::::::::::::::
         :: total energy             -10.653714029418 Eh    ::
         :: gradient norm              0.288079662580 Eh/a0 ::
         :: HOMO-LUMO gap              0.166909573727 eV    ::
         ::.................................................::
         :: SCC energy               -10.743680350020 Eh    ::
         :: -> isotropic ES           -0.025379382836 Eh    ::
         :: -> anisotropic ES          0.006084579114 Eh    ::
         :: -> anisotropic XC         -0.013207310377 Eh    ::
         :: -> dispersion             -0.011273231845 Eh    ::
         :: repulsion energy           0.089994811796 Eh    ::
         :: add. restraining           0.000000000000 Eh    ::
         :: total charge              -0.000000000012 e     ::
         :::::::::::::::::::::::::::::::::::::::::::::::::::::

      ----------------------------------------------------------- 
     |                   =====================                   |
     |                        A N C O P T                        |
     |                   =====================                   |
     |               Approximate Normal Coordinate               |
     |                Rational Function Optimizer                |
      ----------------------------------------------------------- 

          ...................................................
          :                      SETUP                      :
          :.................................................:
          :   optimization level            normal          :
          :   max. optcycles                   200          :
          :   ANC micro-cycles                  20          :
          :   degrees of freedom                30          :
          :.................................................:
          :   RF solver                   davidson          :
          :   write xtbopt.log                true          :
          :   linear?                        false          :
          :   energy convergence         0.5000000E-05 Eh   :
          :   grad. convergence          0.1000000E-02 Eh/α :
          :   maximium RF displ.         1.0000000          :
          :   Hlow (freq-cutoff)         0.1000000E-01      :
          :   Hmax (freq-cutoff)         5.0000000          :
          :   S6 in model hess.         20.0000000          :
          ...................................................

generating ANC from model Hessian ...
Using Lindh-Hessian (1995)
 Shifting diagonal of input Hessian by    1.3635900675350142E-002
 Lowest  eigenvalues of input Hessian
    0.010000    0.010535    0.013268    0.013392    0.013502    0.000000
    0.000000    0.000000    0.000000    0.000000    0.000000    0.013749
    0.014356    0.015185    0.016026    0.016731    0.017662    0.021573
 Highest eigenvalues
    0.221685    0.279388    0.344017    0.395036    0.424258    0.500648


........................................................................
.............................. CYCLE    1 ..............................
........................................................................
   1    -10.7436804 -0.107437E+02  0.173E-04    0.17       0.0  T
   2    -10.7436803  0.713331E-07  0.159E-03    0.17      18.1  T
   3    -10.7436803 -0.686234E-07  0.319E-04    0.17      90.5  T
   4    -10.7436804 -0.271251E-08  0.190E-04    0.17     151.8  T
     SCC iter.                  ...        0 min,  0.001 sec
     gradient                   ...        0 min,  0.000 sec
 * total energy  :   -10.6537140 Eh     change       -0.2678625E-08 Eh
   gradient norm :     0.2880177 Eh/α   predicted     0.0000000E+00 (-100.00%)
   displ. norm   :     0.7390440 α      lambda       -0.2021755E+00
   maximum displ.:     0.4065616 α      in ANC's #22, #21, #16, ...

........................................................................
.............................. CYCLE    2 ..............................
........................................................................
   1    -10.8613776 -0.108614E+02  0.229E+00    0.11       0.0  T
   2     -9.8216840  0.103969E+01  0.663E+00    0.48       1.0  T
   3    -10.6800412 -0.858357E+00  0.299E+00    0.39       1.0  T
   4    -10.4319372  0.248104E+00  0.440E+00    0.43       1.0  T
   5    -10.1006689  0.331268E+00  0.534E+00    0.35       1.0  T
   6    -10.5680927 -0.467424E+00  0.379E+00    0.39       1.0  T
   7    -10.3993611  0.168732E+00  0.425E+00    0.39       1.0  T
   8    -10.5757551 -0.176394E+00  0.349E+00    0.34       1.0  T
   9    -10.7633131 -0.187558E+00  0.232E+00    0.23       1.0  T
  10    -10.8266576 -0.633445E-01  0.172E+00    0.16       1.0  T
  11    -10.8348107 -0.815314E-02  0.162E+00    0.16       1.0  T
  12    -10.8991119 -0.643011E-01  0.676E-01    0.11       1.0  T
  13    -10.8842272  0.148847E-01  0.103E+00    0.12       1.0  T
  14    -10.8880131 -0.378594E-02  0.842E-01    0.11       1.0  T
  15    -10.8678481  0.201650E-01  0.146E+00    0.14       1.0  T
  16    -10.8708702 -0.302211E-02  0.136E+00    0.13       1.0  T
  17    -10.8965158 -0.256455E-01  0.906E-01    0.11       1.0  T
  18    -10.8988089 -0.229316E-02  0.552E-01    0.11       1.0  T
  19    -10.8998949 -0.108601E-02  0.206E-01    0.11       1.0  T
  20    -10.9001453 -0.250353E-03  0.156E-01    0.11       1.0  T
  21    -10.9004411 -0.295853E-03  0.576E-02    0.11       1.0  T
  22    -10.9004655 -0.243690E-04  0.319E-02    0.11       1.0  T
  23    -10.9004627  0.285725E-05  0.303E-02    0.11       1.0  T
  24    -10.9004693 -0.666308E-05  0.146E-02    0.11       2.0  T
  25    -10.9004716 -0.223367E-05  0.385E-03    0.11       7.5  T
  26    -10.9004717 -0.175345E-06  0.113E-03    0.11      25.4  T
  27    -10.9004717  0.607534E-07  0.276E-03    0.11      10.5  T
  28    -10.9004717 -0.491935E-07  0.159E-03    0.11      18.2  T
  29    -10.9004717 -0.192467E-07  0.561E-04    0.11      51.5  T
  30    -10.9004717 -0.123178E-08  0.273E-04    0.11     105.9  T
     SCC iter.                  ...        0 min,  0.005 sec
     gradient                   ...        0 min,  0.000 sec
 * total energy  :   -10.8258306 Eh     change       -0.1721166E+00 Eh
   gradient norm :     0.2190622 Eh/α   predicted    -0.1563005E+00 (  -9.19%)
   displ. norm   :     0.8682763 α      lambda       -0.1862355E+00
   maximum displ.:     0.5406894 α      in ANC's #22, #16, #23, ...

........................................................................
.............................. CYCLE    3 ..............................
........................................................................
   1    -11.0777363 -0.110777E+02  0.279E+00    0.08       0.0  T
   2     -9.8334381  0.124430E+01  0.739E+00    0.59       1.0  T
   3    -10.6683755 -0.834937E+00  0.414E+00    0.30       1.0  T
   4    -11.0384118 -0.370036E+00  0.227E+00    0.10       1.0  T
   5    -11.0104833  0.279285E-01  0.257E+00    0.27       1.0  T
   6    -11.0200111 -0.952783E-02  0.196E+00    0.12       1.0  T
   7    -11.0849629 -0.649518E-01  0.127E+00    0.09       1.0  T
   8    -11.1056389 -0.206760E-01  0.135E+00    0.10       1.0  T
   9    -11.1046991  0.939773E-03  0.159E+00    0.12       1.0  T
  10    -11.1047066 -0.753540E-05  0.158E+00    0.12       1.0  T
  11    -11.1084850 -0.377838E-02  0.118E+00    0.11       1.0  T
  12    -11.1182770 -0.979193E-02  0.528E-01    0.12       1.0  T
  13    -11.1182145  0.624278E-04  0.519E-01    0.12       1.0  T
  14    -11.1175293  0.685268E-03  0.617E-01    0.13       1.0  T
  15    -11.1192056 -0.167632E-02  0.511E-01    0.13       1.0  T
  16    -11.1130151  0.619051E-02  0.115E+00    0.13       1.0  T
  17    -11.1159119 -0.289688E-02  0.918E-01    0.13       1.0  T
  18    -11.1184829 -0.257092E-02  0.609E-01    0.13       1.0  T
  19    -11.1185460 -0.631379E-04  0.575E-01    0.13       1.0  T
  20    -11.1189569 -0.410928E-03  0.505E-01    0.13       1.0  T
  21    -11.1204990 -0.154203E-02  0.239E-01    0.13       1.0  T
  22    -11.1206928 -0.193806E-03  0.186E-01    0.13       1.0  T
  23    -11.1208703 -0.177486E-03  0.985E-02    0.13       1.0  T
  24    -11.1209235 -0.532672E-04  0.535E-02    0.13       1.0  T
  25    -11.1209406 -0.170651E-04  0.231E-02    0.13       1.2  T
  26    -11.1209438 -0.316814E-05  0.101E-02    0.12       2.9  T
  27    -11.1209446 -0.825567E-06  0.230E-03    0.12      12.5  T
  28    -11.1209446 -0.516934E-07  0.348E-04    0.12      82.9  T
  29    -11.1209446 -0.167406E-08  0.232E-04    0.12     124.3  T
     SCC iter.                  ...        0 min,  0.006 sec
     gradient                   ...        0 min,  0.001 sec
 * total energy  :   -10.9378049 Eh     change       -0.1119743E+00 Eh
   gradient norm :     0.1744845 Eh/α   predicted    -0.1633196E+00 (  45.85%)
   displ. norm   :     0.6903966 α      lambda       -0.9194808E-01
   maximum displ.:     0.4683567 α      in ANC's #16, #20, #12, ...

........................................................................
.............................. CYCLE    4 ..............................
........................................................................
   1    -11.1291199 -0.111291E+02  0.413E+00    0.29       0.0  T
   2    -10.3891968  0.739923E+00  0.506E+00    0.04       1.0  T
   3    -10.4150866 -0.258898E-01  0.562E+00    0.69       1.0  T
   4    -10.8123160 -0.397229E+00  0.404E+00    0.46       1.0  T
   5    -10.8257872 -0.134711E-01  0.375E+00    0.63       1.0  T
   6    -11.1464465 -0.320659E+00  0.172E+00    0.36       1.0  T
   7    -11.1206747  0.257717E-01  0.173E+00    0.32       1.0  T
   8    -11.1112937  0.938103E-02  0.168E+00    0.37       1.0  T
   9    -11.1342554 -0.229617E-01  0.141E+00    0.34       1.0  T
  10    -11.1453320 -0.110766E-01  0.931E-01    0.34       1.0  T
  11    -11.1479684 -0.263636E-02  0.828E-01    0.35       1.0  T
  12    -11.1490403 -0.107197E-02  0.775E-01    0.35       1.0  T
  13    -11.1508960 -0.185570E-02  0.606E-01    0.35       1.0  T
  14    -11.1541627 -0.326663E-02  0.346E-01    0.35       1.0  T
  15    -11.1541708 -0.816429E-05  0.334E-01    0.35       1.0  T
  16    -11.1561434 -0.197256E-02  0.755E-02    0.35       1.0  T
  17    -11.1561590 -0.156335E-04  0.390E-02    0.35       1.0  T
  18    -11.1561610 -0.194137E-05  0.262E-02    0.35       1.1  T
  19    -11.1561612 -0.207867E-06  0.146E-02    0.35       2.0  T
  20    -11.1561622 -0.107362E-05  0.627E-03    0.35       4.6  T
  21    -11.1561623 -0.243206E-07  0.217E-03    0.35      13.3  T
  22    -11.1561623  0.612361E-08  0.745E-04    0.35      38.8  T
  23    -11.1561623 -0.794745E-08  0.219E-04    0.35     131.5  T
     SCC iter.                  ...        0 min,  0.004 sec
     gradient                   ...        0 min,  0.000 sec
 * total energy  :   -10.9713376 Eh     change       -0.3353266E-01 Eh
   gradient norm :     0.1537692 Eh/α   predicted    -0.6788746E-01 ( 102.45%)
   displ. norm   :     0.5870810 α      lambda       -0.6220876E-01
   maximum displ.:     0.4007066 α      in ANC's #12, #16, #9, ...

........................................................................
.............................. CYCLE    5 ..............................
........................................................................
   1    -11.1219838 -0.111220E+02  0.205E+00    0.42       0.0  T
   2    -10.9504737  0.171510E+00  0.288E+00    0.28       1.0  T
   3    -11.0031703 -0.526966E-01  0.200E+00    0.43       1.0  T
   4    -10.0842943  0.918876E+00  0.657E+00    0.27       1.0  T
   5    -10.6589008 -0.574607E+00  0.424E+00    0.29       1.0  T
   6    -11.0007106 -0.341810E+00  0.178E+00    0.31       1.0  T
   7    -11.1047729 -0.104062E+00  0.109E+00    0.48       1.0  T
   8    -11.1352845 -0.305116E-01  0.437E-01    0.38       1.0  T
   9    -11.1361192 -0.834717E-03  0.355E-01    0.38       1.0  T
  10    -11.1368826 -0.763374E-03  0.317E-01    0.38       1.0  T
  11    -11.1371589 -0.276321E-03  0.238E-01    0.38       1.0  T
  12    -11.1369262  0.232751E-03  0.230E-01    0.38       1.0  T
  13    -11.1369951 -0.688985E-04  0.226E-01    0.38       1.0  T
  14    -11.1370258 -0.307538E-04  0.212E-01    0.38       1.0  T
  15    -11.1370140  0.117930E-04  0.200E-01    0.38       1.0  T
  16    -11.1370848 -0.708237E-04  0.184E-01    0.38       1.0  T
  17    -11.1370931 -0.827412E-05  0.180E-01    0.38       1.0  T
  18    -11.1371778 -0.846962E-04  0.159E-01    0.38       1.0  T
  19    -11.1372290 -0.511781E-04  0.141E-01    0.38       1.0  T
  20    -11.1373616 -0.132627E-03  0.794E-02    0.38       1.0  T
  21    -11.1374111 -0.495348E-04  0.375E-02    0.38       1.0  T
  22    -11.1374225 -0.113201E-04  0.181E-02    0.38       1.6  T
  23    -11.1374260 -0.348482E-05  0.444E-03    0.38       6.5  T
  24    -11.1374262 -0.239444E-06  0.819E-04    0.38      35.2  T
  25    -11.1374262 -0.421422E-08  0.561E-04    0.38      51.4  T
     SCC iter.                  ...        0 min,  0.005 sec
     gradient                   ...        0 min,  0.000 sec
 * total energy  :   -11.0035016 Eh     change       -0.3216400E-01 Eh
   gradient norm :     0.1146223 Eh/α   predicted    -0.4182494E-01 (  30.04%)
   displ. norm   :     0.6306871 α      lambda       -0.5049463E-01
   maximum displ.:     0.3479043 α      in ANC's #12, #14, #28, ...

........................................................................
.............................. CYCLE    6 ..............................
........................................................................
   1    -11.0906703 -0.110907E+02  0.350E+00    0.84       0.0  T
   2     -9.6181277  0.147254E+01  0.806E+00    0.67       1.0  T
   3    -11.1041838 -0.148606E+01  0.268E+00    0.84       1.0  T
   4    -11.1062773 -0.209345E-02  0.228E+00    0.76       1.0  T
   5    -10.9590413  0.147236E+00  0.278E+00    0.56       1.0  T
   6    -11.1751285 -0.216087E+00  0.163E+00    0.83       1.0  T
   7    -11.2281942 -0.530657E-01  0.107E+00    0.77       1.0  T
   8    -11.2324587 -0.426450E-02  0.820E-01    0.71       1.0  T
   9    -11.2338961 -0.143743E-02  0.719E-01    0.72       1.0  T
  10    -11.2345491 -0.652934E-03  0.498E-01    0.71       1.0  T
  11    -11.2363467 -0.179764E-02  0.311E-01    0.69       1.0  T
  12    -11.2366028 -0.256073E-03  0.207E-01    0.69       1.0  T
  13    -11.2370535 -0.450738E-03  0.383E-02    0.68       1.0  T
  14    -11.2370547 -0.120877E-05  0.296E-02    0.68       1.0  T
  15    -11.2370493  0.540932E-05  0.208E-02    0.68       1.4  T
  16    -11.2370569 -0.756729E-05  0.858E-03    0.68       3.4  T
  17    -11.2370571 -0.188180E-06  0.270E-03    0.68      10.7  T
  18    -11.2370572 -0.110661E-06  0.969E-04    0.68      29.8  T
  19    -11.2370572 -0.102070E-07  0.487E-04    0.68      59.3  T
     SCC iter.                  ...        0 min,  0.004 sec
     gradient                   ...        0 min,  0.001 sec
 * total energy  :   -11.0393900 Eh     change       -0.3588845E-01 Eh
   gradient norm :     0.1275800 Eh/α   predicted    -0.3528985E-01 (  -1.67%)
   displ. norm   :     0.7304961 α      lambda       -0.5747176E-01
   maximum displ.:     0.2783833 α      in ANC's #20, #14, #9, ...

........................................................................
.............................. CYCLE    7 ..............................
........................................................................
   1    -11.2982641 -0.112983E+02  0.231E+00    1.29       0.0  T
   2    -11.2687126  0.295515E-01  0.194E+00    1.10       1.0  T
   3    -11.2598920  0.882055E-02  0.182E+00    1.17       1.0  T
   4    -11.0585635  0.201329E+00  0.272E+00    1.35       1.0  T
   5    -11.2841357 -0.225572E+00  0.890E-01    1.31       1.0  T
   6    -11.3101341 -0.259984E-01  0.338E-01    1.27       1.0  T
   7    -11.3103313 -0.197290E-03  0.274E-01    1.29       1.0  T
   8    -11.3103074  0.239069E-04  0.217E-01    1.28       1.0  T
   9    -11.3110050 -0.697544E-03  0.937E-02    1.29       1.0  T
  10    -11.3111610 -0.155979E-03  0.466E-02    1.28       1.0  T
  11    -11.3111950 -0.340250E-04  0.207E-02    1.28       1.4  T
  12    -11.3111955 -0.462781E-06  0.172E-02    1.28       1.7  T
  13    -11.3111955 -0.731300E-07  0.112E-02    1.28       2.6  T
  14    -11.3111976 -0.208555E-05  0.503E-03    1.28       5.7  T
  15    -11.3111980 -0.352833E-06  0.209E-03    1.28      13.8  T
  16    -11.3111981 -0.154459E-06  0.519E-04    1.28      55.6  T
  17    -11.3111981 -0.506542E-08  0.159E-04    1.28     181.3  T
     SCC iter.                  ...        0 min,  0.004 sec
     gradient                   ...        0 min,  0.001 sec
 * total energy  :   -11.0872300 Eh     change       -0.4784003E-01 Eh
   gradient norm :     0.0831131 Eh/α   predicted    -0.4407007E-01 (  -7.88%)
   displ. norm   :     0.8787467 α      lambda       -0.6113064E-01
   maximum displ.:     0.3994165 α      in ANC's #12, #14, #24, ...

........................................................................
.............................. CYCLE    8 ..............................
........................................................................
   1    -11.3339208 -0.113339E+02  0.238E+00    1.41       0.0  T
   2    -11.2993807  0.345401E-01  0.188E+00    1.47       1.0  T
   3    -11.1908329  0.108548E+00  0.263E+00    1.40       1.0  T
   4    -11.2918345 -0.101002E+00  0.135E+00    1.51       1.0  T
   5    -11.2854218  0.641273E-02  0.133E+00    1.33       1.0  T
   6    -11.3377824 -0.523606E-01  0.538E-01    1.36       1.0  T
   7    -11.3378888 -0.106489E-03  0.346E-01    1.40       1.0  T
   8    -11.3405044 -0.261554E-02  0.240E-01    1.41       1.0  T
   9    -11.3411259 -0.621533E-03  0.182E-01    1.40       1.0  T
  10    -11.3414838 -0.357927E-03  0.664E-02    1.42       1.0  T
  11    -11.3415336 -0.497195E-04  0.336E-02    1.43       1.0  T
  12    -11.3415414 -0.784672E-05  0.147E-02    1.42       2.0  T
  13    -11.3415449 -0.350999E-05  0.478E-03    1.42       6.0  T
  14    -11.3415450 -0.456092E-07  0.134E-03    1.42      21.5  T
  15    -11.3415450 -0.296156E-07  0.661E-04    1.42      43.7  T
  16    -11.3415450 -0.258458E-08  0.354E-04    1.42      81.5  T
     SCC iter.                  ...        0 min,  0.003 sec
     gradient                   ...        0 min,  0.001 sec
 * total energy  :   -11.1218864 Eh     change       -0.3465638E-01 Eh
   gradient norm :     0.1473136 Eh/α   predicted    -0.5416775E-01 (  56.30%)
   displ. norm   :     0.6489373 α      lambda       -0.5519120E-01
   maximum displ.:     0.2577586 α      in ANC's #15, #19, #24, ...

........................................................................
.............................. CYCLE    9 ..............................
........................................................................
   1    -11.3766559 -0.113767E+02  0.188E+00    1.45       0.0  T
   2    -11.1880808  0.188575E+00  0.359E+00    1.37       1.0  T
   3    -11.3828964 -0.194816E+00  0.117E+00    1.45       1.0  T
   4    -11.3148153  0.680811E-01  0.185E+00    1.55       1.0  T
   5    -11.3819971 -0.671818E-01  0.593E-01    1.47       1.0  T
   6    -11.3875338 -0.553675E-02  0.301E-01    1.47       1.0  T
   7    -11.3831693  0.436452E-02  0.402E-01    1.47       1.0  T
   8    -11.3876354 -0.446611E-02  0.203E-01    1.48       1.0  T
   9    -11.3887802 -0.114481E-02  0.695E-02    1.47       1.0  T
  10    -11.3888105 -0.302324E-04  0.380E-02    1.47       1.0  T
  11    -11.3888218 -0.113278E-04  0.242E-02    1.47       1.2  T
  12    -11.3888352 -0.134344E-04  0.704E-03    1.47       4.1  T
  13    -11.3888359 -0.705264E-06  0.337E-03    1.47       8.6  T
  14    -11.3888362 -0.221598E-06  0.518E-04    1.47      55.7  T
  15    -11.3888362 -0.604023E-08  0.395E-04    1.47      73.0  T
     SCC iter.                  ...        0 min,  0.003 sec
     gradient                   ...        0 min,  0.001 sec
 * total energy  :   -11.1550215 Eh     change       -0.3313510E-01 Eh
   gradient norm :     0.1056464 Eh/α   predicted    -0.3921666E-01 (  18.35%)
   displ. norm   :     0.7178426 α      lambda       -0.5045782E-01
   maximum displ.:     0.2931677 α      in ANC's #24, #30, #19, ...

........................................................................
.............................. CYCLE   10 ..............................
........................................................................
   1    -11.4374258 -0.114374E+02  0.230E+00    1.38       0.0  T
   2    -11.3565858  0.808400E-01  0.272E+00    1.10       1.0  T
   3    -11.4200330 -0.634473E-01  0.168E+00    1.49       1.0  T
   4    -11.3959838  0.240492E-01  0.137E+00    1.20       1.0  T
   5    -11.4418706 -0.458868E-01  0.520E-01    1.24       1.0  T
   6    -11.4332992  0.857144E-02  0.703E-01    1.25       1.0  T
   7    -11.4484419 -0.151427E-01  0.235E-01    1.28       1.0  T
   8    -11.4488029 -0.361040E-03  0.156E-01    1.25       1.0  T
   9    -11.4489850 -0.182115E-03  0.795E-02    1.28       1.0  T
  10    -11.4491799 -0.194876E-03  0.137E-02    1.28       2.1  T
  11    -11.4491794  0.488433E-06  0.117E-02    1.28       2.5  T
  12    -11.4491799 -0.439920E-06  0.600E-03    1.28       4.8  T
  13    -11.4491806 -0.703069E-06  0.210E-03    1.28      13.7  T
  14    -11.4491806 -0.776708E-07  0.328E-04    1.28      88.1  T
  15    -11.4491806 -0.102301E-08  0.181E-04    1.28     159.7  T
     SCC iter.                  ...        0 min,  0.003 sec
     gradient                   ...        0 min,  0.001 sec
 * total energy  :   -11.1183472 Eh     change        0.3667431E-01 Eh
   gradient norm :     0.5674612 Eh/α   predicted    -0.3822931E-01 (-204.24%)
   displ. norm   :     0.3441644 α      lambda       -0.1576632E+00
   maximum displ.:     0.2246859 α      in ANC's #9, #30, #2, ...

........................................................................
.............................. CYCLE   11 ..............................
........................................................................
   1    -11.4394985 -0.114395E+02  0.133E+00    1.60       0.0  T
   2    -11.1894966  0.250002E+00  0.354E+00    1.37       1.0  T
   3    -11.4377063 -0.248210E+00  0.809E-01    1.55       1.0  T
   4    -11.3507006  0.870056E-01  0.167E+00    1.57       1.0  T
   5    -11.4397378 -0.890372E-01  0.675E-01    1.67       1.0  T
   6    -11.4505917 -0.108539E-01  0.327E-01    1.58       1.0  T
   7    -11.4520031 -0.141145E-02  0.211E-01    1.58       1.0  T
   8    -11.4513833  0.619812E-03  0.221E-01    1.58       1.0  T
   9    -11.4524040 -0.102062E-02  0.501E-02    1.59       1.0  T
  10    -11.4524455 -0.415481E-04  0.290E-02    1.59       1.0  T
  11    -11.4524495 -0.396717E-05  0.238E-02    1.59       1.2  T
  12    -11.4524631 -0.136549E-04  0.524E-03    1.59       5.5  T
  13    -11.4524634 -0.275553E-06  0.241E-03    1.59      12.0  T
  14    -11.4524634 -0.340835E-07  0.662E-04    1.59      43.6  T
  15    -11.4524634 -0.680253E-08  0.200E-04    1.59     144.1  T
     SCC iter.                  ...        0 min,  0.003 sec
     gradient                   ...        0 min,  0.000 sec
 * total energy  :   -11.1830480 Eh     change       -0.6470079E-01 Eh
   gradient norm :     0.0448222 Eh/α   predicted    -0.8816917E-01 (  36.27%)
   displ. norm   :     0.6634756 α      lambda       -0.2115932E-01
   maximum displ.:     0.3295360 α      in ANC's #14, #12, #11, ...

........................................................................
.............................. CYCLE   12 ..............................
........................................................................
   1    -11.3531297 -0.113531E+02  0.201E+00    1.24       0.0  T
   2    -11.2146349  0.138495E+00  0.298E+00    1.47       1.0  T
   3    -11.3599782 -0.145343E+00  0.115E+00    1.26       1.0  T
   4    -11.3470059  0.129722E-01  0.122E+00    1.35       1.0  T
   5    -11.3660849 -0.190790E-01  0.370E-01    1.29       1.0  T
   6    -11.3665677 -0.482728E-03  0.290E-01    1.31       1.0  T
   7    -11.3605960  0.597170E-02  0.537E-01    1.30       1.0  T
   8    -11.3686326 -0.803662E-02  0.133E-01    1.31       1.0  T
   9    -11.3689270 -0.294458E-03  0.553E-02    1.30       1.0  T
  10    -11.3689624 -0.353702E-04  0.379E-02    1.31       1.0  T
  11    -11.3690079 -0.455239E-04  0.585E-03    1.31       4.9  T
  12    -11.3690083 -0.357411E-06  0.205E-03    1.31      14.1  T
  13    -11.3690083 -0.514983E-07  0.520E-04    1.31      55.6  T
  14    -11.3690083  0.274110E-08  0.442E-04    1.31      65.3  T
     SCC iter.                  ...        0 min,  0.002 sec
     gradient                   ...        0 min,  0.001 sec
 * total energy  :   -11.1675124 Eh     change        0.1553555E-01 Eh
   gradient norm :     0.1743315 Eh/α   predicted    -0.1523682E-01 (-198.08%)
   displ. norm   :     0.3701670 α      lambda       -0.4225763E-01
   maximum displ.:     0.1501686 α      in ANC's #7, #3, #20, ...

........................................................................
.............................. CYCLE   13 ..............................
........................................................................
   1    -11.4263540 -0.114264E+02  0.107E+00    1.55       0.0  T
   2    -11.3863992  0.399548E-01  0.145E+00    1.42       1.0  T
   3    -11.4206851 -0.342860E-01  0.747E-01    1.52       1.0  T
   4    -11.3787713  0.419139E-01  0.141E+00    1.51       1.0  T
   5    -11.4299615 -0.511902E-01  0.365E-01    1.49       1.0  T
   6    -11.4287061  0.125539E-02  0.296E-01    1.49       1.0  T
   7    -11.4312404 -0.253434E-02  0.197E-01    1.48       1.0  T
   8    -11.4316157 -0.375337E-03  0.102E-01    1.48       1.0  T
   9    -11.4317166 -0.100857E-03  0.538E-02    1.48       1.0  T
  10    -11.4317526 -0.359631E-04  0.244E-02    1.49       1.2  T
  11    -11.4317691 -0.165198E-04  0.583E-03    1.49       4.9  T
  12    -11.4317696 -0.481655E-06  0.258E-03    1.49      11.2  T
  13    -11.4317697 -0.122562E-06  0.119E-03    1.49      24.3  T
  14    -11.4317697 -0.183750E-07  0.230E-04    1.49     125.5  T
  15    -11.4317697 -0.194149E-09  0.145E-04    1.49     199.6  T
     SCC iter.                  ...        0 min,  0.003 sec
     gradient                   ...        0 min,  0.000 sec
 * total energy  :   -11.1923798 Eh     change       -0.2486740E-01 Eh
   gradient norm :     0.0449820 Eh/α   predicted    -0.2402396E-01 (  -3.39%)
   displ. norm   :     0.5251541 α      lambda       -0.1469741E-01
   maximum displ.:     0.2933309 α      in ANC's #12, #19, #2, ...

........................................................................
.............................. CYCLE   14 ..............................
........................................................................
   1    -11.4756961 -0.114757E+02  0.170E+00    1.58       0.0  T
   2    -11.4149782  0.607178E-01  0.161E+00    1.34       1.0  T
   3    -11.3173489  0.976294E-01  0.248E+00    1.65       1.0  T
   4    -11.4392167 -0.121868E+00  0.145E+00    1.62       1.0  T
   5    -11.4332413  0.597541E-02  0.111E+00    1.59       1.0  T
   6    -11.4743864 -0.411451E-01  0.354E-01    1.60       1.0  T
   7    -11.4795413 -0.515490E-02  0.214E-01    1.56       1.0  T
   8    -11.4796243 -0.830020E-04  0.196E-01    1.56       1.0  T
   9    -11.4796383 -0.139830E-04  0.136E-01    1.57       1.0  T
  10    -11.4801187 -0.480409E-03  0.354E-02    1.56       1.0  T
  11    -11.4801179  0.846257E-06  0.277E-02    1.56       1.0  T
  12    -11.4801215 -0.362135E-05  0.107E-02    1.56       2.7  T
  13    -11.4801238 -0.228107E-05  0.582E-03    1.56       5.0  T
  14    -11.4801249 -0.108018E-05  0.795E-04    1.56      36.3  T
  15    -11.4801249 -0.664619E-09  0.477E-04    1.56      60.5  T
  16    -11.4801249 -0.325145E-08  0.108E-04    1.56     267.4  T
     SCC iter.                  ...        0 min,  0.003 sec
     gradient                   ...        0 min,  0.001 sec
 * total energy  :   -11.1903729 Eh     change        0.2006962E-02 Eh
   gradient norm :     0.0829581 Eh/α   predicted    -0.9375394E-02 (-567.14%)
   displ. norm   :     0.3898311 α      lambda       -0.1746266E-01
   maximum displ.:     0.2170129 α      in ANC's #12, #3, #9, ...

........................................................................
.............................. CYCLE   15 ..............................
........................................................................
   1    -11.4643963 -0.114644E+02  0.134E+00    1.52       0.0  T
   2    -11.4398687  0.245276E-01  0.124E+00    1.53       1.0  T
   3    -11.3172256  0.122643E+00  0.194E+00    1.32       1.0  T
   4    -11.3535937 -0.363681E-01  0.190E+00    1.55       1.0  T
   5    -11.4418819 -0.882882E-01  0.809E-01    1.58       1.0  T
   6    -11.4572125 -0.153306E-01  0.509E-01    1.51       1.0  T
   7    -11.4649871 -0.777458E-02  0.197E-01    1.52       1.0  T
   8    -11.4660512 -0.106411E-02  0.144E-01    1.53       1.0  T
   9    -11.4665382 -0.487030E-03  0.102E-01    1.52       1.0  T
  10    -11.4665145  0.236955E-04  0.829E-02    1.53       1.0  T
  11    -11.4665737 -0.592149E-04  0.400E-02    1.52       1.0  T
  12    -11.4666078 -0.340597E-04  0.216E-02    1.53       1.3  T
  13    -11.4666227 -0.149523E-04  0.408E-03    1.53       7.1  T
  14    -11.4666229 -0.185368E-06  0.200E-03    1.53      14.4  T
  15    -11.4666230 -0.847915E-07  0.595E-04    1.53      48.5  T
  16    -11.4666230 -0.758295E-08  0.246E-04    1.53     117.6  T
     SCC iter.                  ...        0 min,  0.003 sec
     gradient                   ...        0 min,  0.001 sec
 * total energy  :   -11.1998873 Eh     change       -0.9514444E-02 Eh
   gradient norm :     0.0353420 Eh/α   predicted    -0.1005822E-01 (   5.72%)
   displ. norm   :     0.4870593 α      lambda       -0.8063164E-02
   maximum displ.:     0.1882255 α      in ANC's #4, #14, #3, ...

........................................................................
.............................. CYCLE   16 ..............................
........................................................................
   1    -11.4365399 -0.114365E+02  0.121E+00    1.44       0.0  T
   2    -11.4032757  0.332643E-01  0.147E+00    1.50       1.0  T
   3    -11.4220971 -0.188214E-01  0.105E+00    1.40       1.0  T
   4    -11.4141115  0.798555E-02  0.982E-01    1.43       1.0  T
   5    -11.4304849 -0.163734E-01  0.538E-01    1.47       1.0  T
   6    -11.4389688 -0.848390E-02  0.229E-01    1.44       1.0  T
   7    -11.4400096 -0.104075E-02  0.104E-01    1.44       1.0  T
   8    -11.4401276 -0.118034E-03  0.899E-02    1.44       1.0  T
   9    -11.4400647  0.629247E-04  0.684E-02    1.44       1.0  T
  10    -11.4401271 -0.624074E-04  0.299E-02    1.45       1.0  T
  11    -11.4401452 -0.180960E-04  0.160E-02    1.45       1.8  T
  12    -11.4401492 -0.404583E-05  0.513E-03    1.45       5.6  T
  13    -11.4401499 -0.718628E-06  0.103E-03    1.45      28.1  T
  14    -11.4401499 -0.593902E-08  0.445E-04    1.45      64.9  T
  15    -11.4401500 -0.486354E-08  0.850E-05    1.45     339.7  T
     SCC iter.                  ...        0 min,  0.004 sec
     gradient                   ...        0 min,  0.001 sec
 * total energy  :   -11.2025617 Eh     change       -0.2674346E-02 Eh
   gradient norm :     0.0533569 Eh/α   predicted    -0.4987975E-02 (  86.51%)
   displ. norm   :     0.3658910 α      lambda       -0.6184455E-02
   maximum displ.:     0.1723313 α      in ANC's #3, #19, #1, ...

........................................................................
.............................. CYCLE   17 ..............................
........................................................................
   1    -11.4642720 -0.114643E+02  0.105E+00    1.45       0.0  T
   2    -11.4624026  0.186937E-02  0.684E-01    1.43       1.0  T
   3    -11.4258757  0.365269E-01  0.141E+00    1.42       1.0  T
   4    -11.4596307 -0.337550E-01  0.345E-01    1.45       1.0  T
   5    -11.4612430 -0.161228E-02  0.313E-01    1.45       1.0  T
   6    -11.4641230 -0.288006E-02  0.149E-01    1.43       1.0  T
   7    -11.4644061 -0.283065E-03  0.894E-02    1.44       1.0  T
   8    -11.4645579 -0.151779E-03  0.590E-02    1.44       1.0  T
   9    -11.4646107 -0.528610E-04  0.215E-02    1.44       1.3  T
  10    -11.4646176 -0.689700E-05  0.899E-03    1.44       3.2  T
  11    -11.4646174  0.229199E-06  0.717E-03    1.44       4.0  T
  12    -11.4646186 -0.122350E-05  0.179E-03    1.44      16.1  T
  13    -11.4646187 -0.104723E-06  0.371E-04    1.44      77.7  T
  14    -11.4646187 -0.171609E-09  0.111E-04    1.44     260.8  T
     SCC iter.                  ...        0 min,  0.003 sec
     gradient                   ...        0 min,  0.001 sec
 * total energy  :   -11.2060496 Eh     change       -0.3487929E-02 Eh
   gradient norm :     0.0386532 Eh/α   predicted    -0.3506201E-02 (   0.52%)
   displ. norm   :     0.5743388 α      lambda       -0.9147553E-02
   maximum displ.:     0.2694886 α      in ANC's #3, #11, #19, ...

........................................................................
.............................. CYCLE   18 ..............................
........................................................................
   1    -11.4607222 -0.114607E+02  0.152E+00    1.45       0.0  T
   2    -11.4337755  0.269467E-01  0.143E+00    1.41       1.0  T
   3    -11.3248067  0.108969E+00  0.256E+00    1.46       1.0  T
   4    -11.4069798 -0.821730E-01  0.152E+00    1.45       1.0  T
   5    -11.4584771 -0.514974E-01  0.437E-01    1.43       1.0  T
   6    -11.4511780  0.729915E-02  0.546E-01    1.47       1.0  T
   7    -11.4620040 -0.108260E-01  0.260E-01    1.46       1.0  T
   8    -11.4622946 -0.290648E-03  0.218E-01    1.45       1.0  T
   9    -11.4627268 -0.432160E-03  0.101E-01    1.46       1.0  T
  10    -11.4628603 -0.133549E-03  0.484E-02    1.46       1.0  T
  11    -11.4628666 -0.626953E-05  0.323E-02    1.46       1.0  T
  12    -11.4628745 -0.792046E-05  0.103E-02    1.46       2.8  T
  13    -11.4628774 -0.285331E-05  0.413E-03    1.46       7.0  T
  14    -11.4628775 -0.176047E-06  0.116E-03    1.46      24.9  T
  15    -11.4628775 -0.950182E-08  0.347E-04    1.46      83.1  T
  16    -11.4628775 -0.272422E-08  0.150E-04    1.46     192.2  T
     SCC iter.                  ...        0 min,  0.003 sec
     gradient                   ...        0 min,  0.001 sec
 * total energy  :   -11.2073312 Eh     change       -0.1281624E-02 Eh
   gradient norm :     0.0548802 Eh/α   predicted    -0.6082502E-02 ( 374.59%)
   displ. norm   :     0.3745055 α      lambda       -0.7870414E-02
   maximum displ.:     0.2137157 α      in ANC's #2, #7, #19, ...

........................................................................
.............................. CYCLE   19 ..............................
........................................................................
   1    -11.4681802 -0.114682E+02  0.100E+00    1.48       0.0  T
   2    -11.4645307  0.364949E-02  0.715E-01    1.48       1.0  T
   3    -11.4348170  0.297137E-01  0.124E+00    1.53       1.0  T
   4    -11.4497871 -0.149702E-01  0.754E-01    1.41       1.0  T
   5    -11.4609710 -0.111839E-01  0.459E-01    1.48       1.0  T
   6    -11.4687282 -0.775715E-02  0.112E-01    1.49       1.0  T
   7    -11.4687556 -0.273572E-04  0.112E-01    1.48       1.0  T
   8    -11.4689817 -0.226153E-03  0.519E-02    1.48       1.0  T
   9    -11.4689889 -0.716479E-05  0.388E-02    1.49       1.0  T
  10    -11.4690290 -0.401316E-04  0.114E-02    1.49       2.5  T
  11    -11.4690309 -0.190165E-05  0.373E-03    1.49       7.7  T
  12    -11.4690310 -0.921111E-07  0.114E-03    1.49      25.3  T
  13    -11.4690310 -0.230535E-07  0.411E-04    1.49      70.2  T
  14    -11.4690310 -0.178505E-08  0.149E-04    1.49     193.2  T
     SCC iter.                  ...        0 min,  0.003 sec
     gradient                   ...        0 min,  0.001 sec
 * total energy  :   -11.2111466 Eh     change       -0.3815414E-02 Eh
   gradient norm :     0.0354769 Eh/α   predicted    -0.4487137E-02 (  17.61%)
   displ. norm   :     0.3938892 α      lambda       -0.5906969E-02
   maximum displ.:     0.1470072 α      in ANC's #17, #4, #13, ...

........................................................................
.............................. CYCLE   20 ..............................
........................................................................
   1    -11.4782224 -0.114782E+02  0.834E-01    1.47       0.0  T
   2    -11.4627748  0.154476E-01  0.903E-01    1.49       1.0  T
   3    -11.4510184  0.117564E-01  0.113E+00    1.41       1.0  T
   4    -11.4592107 -0.819232E-02  0.750E-01    1.42       1.0  T
   5    -11.4659200 -0.670933E-02  0.578E-01    1.50       1.0  T
   6    -11.4782057 -0.122857E-01  0.179E-01    1.47       1.0  T
   7    -11.4788882 -0.682440E-03  0.119E-01    1.47       1.0  T
   8    -11.4790466 -0.158405E-03  0.995E-02    1.47       1.0  T
   9    -11.4792019 -0.155339E-03  0.393E-02    1.47       1.0  T
  10    -11.4792187 -0.168164E-04  0.169E-02    1.47       1.7  T
  11    -11.4792287 -0.100162E-04  0.584E-03    1.47       4.9  T
  12    -11.4792293 -0.521138E-06  0.219E-03    1.47      13.2  T
  13    -11.4792294 -0.127179E-06  0.928E-04    1.47      31.1  T
  14    -11.4792294 -0.168131E-07  0.245E-04    1.47     117.9  T
     SCC iter.                  ...        0 min,  0.003 sec
     gradient                   ...        0 min,  0.001 sec
 * total energy  :   -11.2117491 Eh     change       -0.6024409E-03 Eh
   gradient norm :     0.0568406 Eh/α   predicted    -0.3411718E-02 ( 466.32%)
   displ. norm   :     0.3060863 α      lambda       -0.6366531E-02
   maximum displ.:     0.1282063 α      in ANC's #3, #7, #18, ...
 * RMSD in coord.:     1.8896372 α      energy gain  -0.5580351E+00 Eh

generating ANC from model Hessian ...
Using Lindh-Hessian (1995)
 Shifting diagonal of input Hessian by    1.0308984728563272E-002
 Lowest  eigenvalues of input Hessian
    0.010000    0.010047    0.010159    0.010184    0.010286    0.000000
    0.000000    0.000000    0.000000    0.000000    0.000000    0.010309
    0.010355    0.010476    0.010576    0.010711    0.010852    0.011009
 Highest eigenvalues
    0.496195    0.528009    0.593090    0.822475    1.227777    2.071500


........................................................................
.............................. CYCLE   21 ..............................
........................................................................
   1    -11.4680621 -0.114681E+02  0.880E-01    1.46       0.0  T
   2    -11.4617100  0.635216E-02  0.769E-01    1.46       1.0  T
   3    -11.4414484  0.202616E-01  0.119E+00    1.39       1.0  T
   4    -11.4636335 -0.221852E-01  0.483E-01    1.49       1.0  T
   5    -11.4653503 -0.171674E-02  0.310E-01    1.46       1.0  T
   6    -11.4684359 -0.308564E-02  0.121E-01    1.44       1.0  T
   7    -11.4685253 -0.893460E-04  0.854E-02    1.45       1.0  T
   8    -11.4686915 -0.166207E-03  0.540E-02    1.45       1.0  T
   9    -11.4687047 -0.132539E-04  0.242E-02    1.45       1.2  T
  10    -11.4687084 -0.365397E-05  0.121E-02    1.45       2.4  T
  11    -11.4687118 -0.346650E-05  0.696E-03    1.45       4.1  T
  12    -11.4687125 -0.687733E-06  0.839E-04    1.45      34.4  T
  13    -11.4687125 -0.147050E-07  0.381E-04    1.45      75.8  T
     SCC iter.                  ...        0 min,  0.002 sec
     gradient                   ...        0 min,  0.001 sec
 * total energy  :   -11.2145390 Eh     change       -0.2789957E-02 Eh
   gradient norm :     0.0295460 Eh/α   predicted     0.0000000E+00 (-100.00%)
   displ. norm   :     0.3072333 α      lambda       -0.3479604E-02
   maximum displ.:     0.1405152 α      in ANC's #7, #18, #16, ...

........................................................................
.............................. CYCLE   22 ..............................
........................................................................
   1    -11.4786700 -0.114787E+02  0.109E+00    1.45       0.0  T
   2    -11.4692682  0.940177E-02  0.940E-01    1.40       1.0  T
   3    -11.3536811  0.115587E+00  0.242E+00    1.43       1.0  T
   4    -11.4718893 -0.118208E+00  0.483E-01    1.43       1.0  T
   5    -11.4534216  0.184677E-01  0.786E-01    1.41       1.0  T
   6    -11.4769510 -0.235294E-01  0.286E-01    1.45       1.0  T
   7    -11.4786998 -0.174871E-02  0.205E-01    1.44       1.0  T
   8    -11.4790064 -0.306606E-03  0.171E-01    1.44       1.0  T
   9    -11.4792862 -0.279883E-03  0.113E-01    1.45       1.0  T
  10    -11.4794210 -0.134772E-03  0.557E-02    1.44       1.0  T
  11    -11.4794672 -0.462267E-04  0.202E-02    1.45       1.4  T
  12    -11.4794697 -0.243402E-05  0.107E-02    1.45       2.7  T
  13    -11.4794709 -0.120085E-05  0.261E-03    1.45      11.1  T
  14    -11.4794709 -0.761397E-07  0.113E-03    1.45      25.5  T
  15    -11.4794710 -0.192406E-07  0.403E-04    1.45      71.6  T
  16    -11.4794710 -0.269228E-08  0.124E-04    1.45     231.9  T
     SCC iter.                  ...        0 min,  0.003 sec
     gradient                   ...        0 min,  0.001 sec
 * total energy  :   -11.2169965 Eh     change       -0.2457504E-02 Eh
   gradient norm :     0.0146774 Eh/α   predicted    -0.1904027E-02 ( -22.52%)
   displ. norm   :     0.4491068 α      lambda       -0.3398511E-02
   maximum displ.:     0.2913671 α      in ANC's #18, #16, #14, ...

........................................................................
.............................. CYCLE   23 ..............................
........................................................................
   1    -11.4862019 -0.114862E+02  0.150E+00    1.54       0.0  T
   2    -11.4832111  0.299075E-02  0.102E+00    1.50       1.0  T
   3    -11.1018127  0.381398E+00  0.420E+00    1.43       1.0  T
   4    -11.4750887 -0.373276E+00  0.675E-01    1.54       1.0  T
   5    -11.4807645 -0.567578E-02  0.455E-01    1.51       1.0  T
   6    -11.4838281 -0.306364E-02  0.279E-01    1.52       1.0  T
   7    -11.4863361 -0.250802E-02  0.137E-01    1.52       1.0  T
   8    -11.4862701  0.660134E-04  0.127E-01    1.52       1.0  T
   9    -11.4864258 -0.155742E-03  0.599E-02    1.53       1.0  T
  10    -11.4864979 -0.720482E-04  0.295E-02    1.52       1.0  T
  11    -11.4865047 -0.681530E-05  0.147E-02    1.52       2.0  T
  12    -11.4865048 -0.134708E-06  0.397E-03    1.52       7.3  T
  13    -11.4865050 -0.177413E-06  0.159E-03    1.52      18.2  T
  14    -11.4865050 -0.328264E-07  0.581E-04    1.52      49.6  T
  15    -11.4865051 -0.488885E-08  0.307E-04    1.52      94.1  T
     SCC iter.                  ...        0 min,  0.003 sec
     gradient                   ...        0 min,  0.000 sec
 * total energy  :   -11.2187749 Eh     change       -0.1778324E-02 Eh
   gradient norm :     0.0202772 Eh/α   predicted    -0.2041985E-02 (  14.83%)
   displ. norm   :     0.5128748 α      lambda       -0.2981336E-02
   maximum displ.:     0.2740135 α      in ANC's #16, #18, #12, ...

........................................................................
.............................. CYCLE   24 ..............................
........................................................................
   1    -11.4734273 -0.114734E+02  0.199E+00    1.45       0.0  T
   2    -11.4686330  0.479432E-02  0.131E+00    1.46       1.0  T
   3    -11.0552276  0.413405E+00  0.396E+00    1.13       1.0  T
   4    -11.3833206 -0.328093E+00  0.166E+00    1.31       1.0  T
   5    -11.4724057 -0.890850E-01  0.307E-01    1.45       1.0  T
   6    -11.4716044  0.801266E-03  0.278E-01    1.48       1.0  T
   7    -11.4735313 -0.192688E-02  0.158E-01    1.46       1.0  T
   8    -11.4739164 -0.385095E-03  0.115E-01    1.46       1.0  T
   9    -11.4740246 -0.108180E-03  0.394E-02    1.46       1.0  T
  10    -11.4740495 -0.249620E-04  0.194E-02    1.46       1.5  T
  11    -11.4740561 -0.661505E-05  0.909E-03    1.46       3.2  T
  12    -11.4740563 -0.132311E-06  0.509E-03    1.46       5.7  T
  13    -11.4740573 -0.101677E-05  0.132E-03    1.46      21.9  T
  14    -11.4740573 -0.181410E-07  0.463E-04    1.46      62.3  T
  15    -11.4740573 -0.532185E-08  0.141E-04    1.46     204.8  T
     SCC iter.                  ...        0 min,  0.003 sec
     gradient                   ...        0 min,  0.001 sec
 * total energy  :   -11.2199198 Eh     change       -0.1144931E-02 Eh
   gradient norm :     0.0513792 Eh/α   predicted    -0.1882784E-02 (  64.45%)
   displ. norm   :     0.2000684 α      lambda       -0.2631228E-02
   maximum displ.:     0.0745691 α      in ANC's #7, #15, #12, ...

........................................................................
.............................. CYCLE   25 ..............................
........................................................................
   1    -11.4843006 -0.114843E+02  0.389E-01    1.49       0.0  T
   2    -11.4789571  0.534353E-02  0.549E-01    1.44       1.0  T
   3    -11.4829954 -0.403824E-02  0.306E-01    1.50       1.0  T
   4    -11.4756246  0.737074E-02  0.560E-01    1.47       1.0  T
   5    -11.4841743 -0.854966E-02  0.133E-01    1.48       1.0  T
   6    -11.4843824 -0.208105E-03  0.103E-01    1.47       1.0  T
   7    -11.4847227 -0.340309E-03  0.434E-02    1.47       1.0  T
   8    -11.4847546 -0.319086E-04  0.245E-02    1.48       1.2  T
   9    -11.4847629 -0.828543E-05  0.608E-03    1.48       4.7  T
  10    -11.4847634 -0.515074E-06  0.309E-03    1.48       9.4  T
  11    -11.4847635 -0.812964E-07  0.159E-03    1.48      18.2  T
  12    -11.4847635 -0.429197E-07  0.510E-04    1.48      56.6  T
  13    -11.4847635 -0.536478E-08  0.892E-05    1.48     323.7  T
     SCC iter.                  ...        0 min,  0.003 sec
     gradient                   ...        0 min,  0.000 sec
 * total energy  :   -11.2213074 Eh     change       -0.1387622E-02 Eh
   gradient norm :     0.0204056 Eh/α   predicted    -0.1368274E-02 (  -1.39%)
   displ. norm   :     0.3558971 α      lambda       -0.2156229E-02
   maximum displ.:     0.1636419 α      in ANC's #1, #14, #3, ...

........................................................................
.............................. CYCLE   26 ..............................
........................................................................
   1    -11.4934755 -0.114935E+02  0.109E+00    1.47       0.0  T
   2    -11.4920652  0.141030E-02  0.760E-01    1.47       1.0  T
   3    -11.3580377  0.134028E+00  0.206E+00    1.30       1.0  T
   4    -11.4887507 -0.130713E+00  0.461E-01    1.48       1.0  T
   5    -11.4915661 -0.281543E-02  0.247E-01    1.47       1.0  T
   6    -11.4931699 -0.160376E-02  0.124E-01    1.46       1.0  T
   7    -11.4934521 -0.282230E-03  0.816E-02    1.47       1.0  T
   8    -11.4935454 -0.932641E-04  0.458E-02    1.47       1.0  T
   9    -11.4935675 -0.220984E-04  0.155E-02    1.47       1.9  T
  10    -11.4935683 -0.873570E-06  0.864E-03    1.47       3.3  T
  11    -11.4935697 -0.139108E-05  0.631E-03    1.47       4.6  T
  12    -11.4935700 -0.260740E-06  0.161E-03    1.47      18.0  T
  13    -11.4935700 -0.396853E-07  0.555E-04    1.47      52.1  T
  14    -11.4935700 -0.297094E-08  0.141E-04    1.47     204.2  T
     SCC iter.                  ...        0 min,  0.002 sec
     gradient                   ...        0 min,  0.001 sec
 * total energy  :   -11.2223781 Eh     change       -0.1070662E-02 Eh
   gradient norm :     0.0185350 Eh/α   predicted    -0.1214674E-02 (  13.45%)
   displ. norm   :     0.4973855 α      lambda       -0.1906944E-02
   maximum displ.:     0.2080144 α      in ANC's #16, #18, #14, ...

........................................................................
.............................. CYCLE   27 ..............................
........................................................................
   1    -11.4834914 -0.114835E+02  0.146E+00    1.47       0.0  T
   2    -11.4745901  0.890138E-02  0.109E+00    1.46       1.0  T
   3    -10.9350960  0.539494E+00  0.425E+00    0.96       1.0  T
   4    -11.4770284 -0.541932E+00  0.567E-01    1.46       1.0  T
   5    -11.4583495  0.186789E-01  0.776E-01    1.45       1.0  T
   6    -11.4829211 -0.245716E-01  0.213E-01    1.48       1.0  T
   7    -11.4835698 -0.648664E-03  0.148E-01    1.47       1.0  T
   8    -11.4834740  0.957567E-04  0.163E-01    1.46       1.0  T
   9    -11.4838928 -0.418802E-03  0.692E-02    1.48       1.0  T
  10    -11.4839352 -0.423431E-04  0.333E-02    1.47       1.0  T
  11    -11.4839452 -0.100281E-04  0.210E-02    1.47       1.4  T
  12    -11.4839461 -0.891686E-06  0.937E-03    1.47       3.1  T
  13    -11.4839476 -0.148209E-05  0.209E-03    1.47      13.8  T
  14    -11.4839476 -0.241836E-07  0.676E-04    1.47      42.7  T
  15    -11.4839476 -0.232707E-08  0.240E-04    1.47     120.4  T
     SCC iter.                  ...        0 min,  0.003 sec
     gradient                   ...        0 min,  0.000 sec
 * total energy  :   -11.2234621 Eh     change       -0.1084020E-02 Eh
   gradient norm :     0.0250071 Eh/α   predicted    -0.1189355E-02 (   9.72%)
   displ. norm   :     0.2829883 α      lambda       -0.1331926E-02
   maximum displ.:     0.1508601 α      in ANC's #1, #3, #14, ...

........................................................................
.............................. CYCLE   28 ..............................
........................................................................
   1    -11.4847074 -0.114847E+02  0.592E-01    1.48       0.0  T
   2    -11.4714746  0.132329E-01  0.833E-01    1.43       1.0  T
   3    -11.4766917 -0.521714E-02  0.612E-01    1.49       1.0  T
   4    -11.4597798  0.169119E-01  0.798E-01    1.47       1.0  T
   5    -11.4850674 -0.252876E-01  0.143E-01    1.47       1.0  T
   6    -11.4849521  0.115293E-03  0.122E-01    1.47       1.0  T
   7    -11.4852609 -0.308858E-03  0.787E-02    1.47       1.0  T
   8    -11.4853073 -0.463177E-04  0.604E-02    1.47       1.0  T
   9    -11.4853630 -0.557511E-04  0.134E-02    1.48       2.2  T
  10    -11.4853675 -0.453386E-05  0.404E-03    1.48       7.2  T
  11    -11.4853680 -0.451067E-06  0.200E-03    1.48      14.4  T
  12    -11.4853679  0.671765E-07  0.165E-03    1.48      17.5  T
  13    -11.4853680 -0.112871E-06  0.384E-04    1.48      75.2  T
  14    -11.4853680 -0.157260E-08  0.167E-04    1.48     172.7  T
     SCC iter.                  ...        0 min,  0.002 sec
     gradient                   ...        0 min,  0.000 sec
 * total energy  :   -11.2241182 Eh     change       -0.6560580E-03 Eh
   gradient norm :     0.0197209 Eh/α   predicted    -0.7192931E-03 (   9.64%)
   displ. norm   :     0.4480516 α      lambda       -0.1759412E-02
   maximum displ.:     0.2413919 α      in ANC's #1, #7, #14, ...

........................................................................
.............................. CYCLE   29 ..............................
........................................................................
   1    -11.4831469 -0.114831E+02  0.104E+00    1.48       0.0  T
   2    -11.4787376  0.440927E-02  0.833E-01    1.47       1.0  T
   3    -11.3774871  0.101251E+00  0.186E+00    1.31       1.0  T
   4    -11.4649457 -0.874586E-01  0.838E-01    1.50       1.0  T
   5    -11.4758159 -0.108702E-01  0.449E-01    1.46       1.0  T
   6    -11.4821407 -0.632481E-02  0.202E-01    1.46       1.0  T
   7    -11.4831588 -0.101809E-02  0.112E-01    1.47       1.0  T
   8    -11.4833233 -0.164540E-03  0.766E-02    1.47       1.0  T
   9    -11.4832248  0.985168E-04  0.528E-02    1.47       1.0  T
  10    -11.4833307 -0.105889E-03  0.125E-02    1.47       2.3  T
  11    -11.4833328 -0.207355E-05  0.741E-03    1.47       3.9  T
  12    -11.4833343 -0.150497E-05  0.198E-03    1.47      14.5  T
  13    -11.4833343  0.287535E-07  0.186E-03    1.47      15.5  T
  14    -11.4833343 -0.664470E-07  0.367E-04    1.47      78.6  T
  15    -11.4833343 -0.893627E-09  0.182E-04    1.47     158.8  T
     SCC iter.                  ...        0 min,  0.003 sec
     gradient                   ...        0 min,  0.001 sec
 * total energy  :   -11.2246721 Eh     change       -0.5539161E-03 Eh
   gradient norm :     0.0196974 Eh/α   predicted    -0.1056306E-02 (  90.70%)
   displ. norm   :     0.3646773 α      lambda       -0.2159807E-02
   maximum displ.:     0.1451541 α      in ANC's #2, #14, #1, ...

........................................................................
.............................. CYCLE   30 ..............................
........................................................................
   1    -11.4942303 -0.114942E+02  0.895E-01    1.47       0.0  T
   2    -11.3766190  0.117611E+00  0.207E+00    1.30       1.0  T
   3    -11.4938792 -0.117260E+00  0.566E-01    1.50       1.0  T
   4    -11.4637439  0.301353E-01  0.115E+00    1.44       1.0  T
   5    -11.4954198 -0.316759E-01  0.370E-01    1.46       1.0  T
   6    -11.4958615 -0.441724E-03  0.348E-01    1.48       1.0  T
   7    -11.4996929 -0.383139E-02  0.801E-02    1.47       1.0  T
   8    -11.4996336  0.593216E-04  0.817E-02    1.47       1.0  T
   9    -11.4997969 -0.163368E-03  0.353E-02    1.47       1.0  T
  10    -11.4998142 -0.172902E-04  0.147E-02    1.47       2.0  T
  11    -11.4998156 -0.140548E-05  0.747E-03    1.47       3.9  T
  12    -11.4998160 -0.377833E-06  0.373E-03    1.47       7.7  T
  13    -11.4998162 -0.157414E-06  0.245E-03    1.47      11.8  T
  14    -11.4998163 -0.145868E-06  0.462E-04    1.47      62.4  T
  15    -11.4998163 -0.260559E-08  0.893E-05    1.47     323.1  T
     SCC iter.                  ...        0 min,  0.003 sec
     gradient                   ...        0 min,  0.000 sec
 * total energy  :   -11.2250975 Eh     change       -0.4254588E-03 Eh
   gradient norm :     0.0252171 Eh/α   predicted    -0.1223521E-02 ( 187.58%)
   displ. norm   :     0.2714259 α      lambda       -0.1572683E-02
   maximum displ.:     0.1217729 α      in ANC's #1, #3, #16, ...

........................................................................
.............................. CYCLE   31 ..............................
........................................................................
   1    -11.4852604 -0.114853E+02  0.711E-01    1.45       0.0  T
   2    -11.4665418  0.187186E-01  0.959E-01    1.48       1.0  T
   3    -11.4670724 -0.530548E-03  0.840E-01    1.42       1.0  T
   4    -11.4607433  0.632908E-02  0.890E-01    1.41       1.0  T
   5    -11.4839760 -0.232327E-01  0.274E-01    1.47       1.0  T
   6    -11.4850187 -0.104272E-02  0.183E-01    1.46       1.0  T
   7    -11.4858322 -0.813511E-03  0.754E-02    1.46       1.0  T
   8    -11.4858822 -0.500299E-04  0.723E-02    1.46       1.0  T
   9    -11.4858699  0.123415E-04  0.365E-02    1.46       1.0  T
  10    -11.4858860 -0.161263E-04  0.202E-02    1.46       1.4  T
  11    -11.4859006 -0.145835E-04  0.279E-03    1.46      10.4  T
  12    -11.4859006  0.170416E-07  0.165E-03    1.46      17.4  T
  13    -11.4859006 -0.457537E-07  0.795E-04    1.46      36.3  T
  14    -11.4859006 -0.101459E-07  0.874E-05    1.46     330.3  T
     SCC iter.                  ...        0 min,  0.002 sec
     gradient                   ...        0 min,  0.000 sec
 * total energy  :   -11.2256089 Eh     change       -0.5113674E-03 Eh
   gradient norm :     0.0261549 Eh/α   predicted    -0.8442730E-03 (  65.10%)
   displ. norm   :     0.2156300 α      lambda       -0.1438922E-02
   maximum displ.:     0.1131777 α      in ANC's #17, #6, #7, ...

........................................................................
.............................. CYCLE   32 ..............................
........................................................................
   1    -11.4947779 -0.114948E+02  0.507E-01    1.46       0.0  T
   2    -11.4918619  0.291595E-02  0.475E-01    1.42       1.0  T
   3    -11.4759402  0.159217E-01  0.928E-01    1.47       1.0  T
   4    -11.4807139 -0.477370E-02  0.677E-01    1.46       1.0  T
   5    -11.4925736 -0.118597E-01  0.241E-01    1.45       1.0  T
   6    -11.4942746 -0.170098E-02  0.151E-01    1.44       1.0  T
   7    -11.4950115 -0.736895E-03  0.461E-02    1.44       1.0  T
   8    -11.4950146 -0.317311E-05  0.361E-02    1.44       1.0  T
   9    -11.4950259 -0.112516E-04  0.161E-02    1.44       1.8  T
  10    -11.4950344 -0.847417E-05  0.230E-03    1.44      12.5  T
  11    -11.4950344 -0.520856E-07  0.151E-03    1.44      19.2  T
  12    -11.4950345 -0.521411E-07  0.410E-04    1.44      70.4  T
  13    -11.4950345 -0.223245E-08  0.230E-04    1.44     125.4  T
     SCC iter.                  ...        0 min,  0.002 sec
     gradient                   ...        0 min,  0.001 sec
 * total energy  :   -11.2256019 Eh     change        0.6984319E-05 Eh
   gradient norm :     0.0193337 Eh/α   predicted    -0.7529143E-03 (*******%)
   displ. norm   :     0.3307200 α      lambda       -0.1652851E-02
   maximum displ.:     0.1417650 α      in ANC's #1, #7, #2, ...

........................................................................
.............................. CYCLE   33 ..............................
........................................................................
   1    -11.4862809 -0.114863E+02  0.793E-01    1.44       0.0  T
   2    -11.4292476  0.570332E-01  0.146E+00    1.36       1.0  T
   3    -11.4683406 -0.390929E-01  0.887E-01    1.45       1.0  T
   4    -11.4649591  0.338151E-02  0.877E-01    1.39       1.0  T
   5    -11.4877236 -0.227645E-01  0.221E-01    1.43       1.0  T
   6    -11.4878202 -0.965625E-04  0.179E-01    1.44       1.0  T
   7    -11.4883076 -0.487387E-03  0.135E-01    1.44       1.0  T
   8    -11.4884244 -0.116829E-03  0.100E-01    1.44       1.0  T
   9    -11.4884518 -0.273842E-04  0.463E-02    1.44       1.0  T
  10    -11.4885191 -0.673277E-04  0.124E-02    1.44       2.3  T
  11    -11.4885207 -0.158428E-05  0.457E-03    1.44       6.3  T
  12    -11.4885195  0.118620E-05  0.785E-03    1.44       3.7  T
  13    -11.4885207 -0.119336E-05  0.160E-03    1.44      18.1  T
  14    -11.4885207 -0.319342E-07  0.284E-04    1.44     101.5  T
  15    -11.4885207  0.796099E-09  0.195E-04    1.44     148.0  T
     SCC iter.                  ...        0 min,  0.003 sec
     gradient                   ...        0 min,  0.001 sec
 * total energy  :   -11.2263027 Eh     change       -0.7007799E-03 Eh
   gradient norm :     0.0171615 Eh/α   predicted    -0.9168169E-03 (  30.83%)
   displ. norm   :     0.2905508 α      lambda       -0.1245982E-02
   maximum displ.:     0.1385859 α      in ANC's #6, #1, #7, ...

........................................................................
.............................. CYCLE   34 ..............................
........................................................................
   1    -11.4923693 -0.114924E+02  0.640E-01    1.43       0.0  T
   2    -11.4763800  0.159893E-01  0.902E-01    1.40       1.0  T
   3    -11.4667256  0.965443E-02  0.106E+00    1.41       1.0  T
   4    -11.4667281 -0.252875E-05  0.900E-01    1.37       1.0  T
   5    -11.4918702 -0.251420E-01  0.191E-01    1.43       1.0  T
   6    -11.4923124 -0.442222E-03  0.157E-01    1.43       1.0  T
   7    -11.4930849 -0.772523E-03  0.665E-02    1.43       1.0  T
   8    -11.4930688  0.160985E-04  0.525E-02    1.43       1.0  T
   9    -11.4930744 -0.564716E-05  0.201E-02    1.42       1.4  T
  10    -11.4930889 -0.144731E-04  0.442E-03    1.43       6.5  T
  11    -11.4930889  0.379349E-07  0.378E-03    1.43       7.6  T
  12    -11.4930891 -0.264587E-06  0.161E-03    1.43      17.9  T
  13    -11.4930892 -0.177549E-07  0.987E-04    1.43      29.2  T
  14    -11.4930892 -0.141757E-07  0.239E-04    1.43     120.6  T
     SCC iter.                  ...        0 min,  0.003 sec
     gradient                   ...        0 min,  0.000 sec
 * total energy  :   -11.2265276 Eh     change       -0.2248543E-03 Eh
   gradient norm :     0.0147399 Eh/α   predicted    -0.6755815E-03 ( 200.45%)
   displ. norm   :     0.2529417 α      lambda       -0.1045283E-02
   maximum displ.:     0.0998105 α      in ANC's #1, #3, #19, ...

........................................................................
.............................. CYCLE   35 ..............................
........................................................................
   1    -11.4884990 -0.114885E+02  0.570E-01    1.40       0.0  T
   2    -11.4638775  0.246215E-01  0.103E+00    1.37       1.0  T
   3    -11.4754815 -0.116040E-01  0.774E-01    1.39       1.0  T
   4    -11.4730996  0.238188E-02  0.763E-01    1.34       1.0  T
   5    -11.4879486 -0.148490E-01  0.239E-01    1.39       1.0  T
   6    -11.4881842 -0.235594E-03  0.197E-01    1.40       1.0  T
   7    -11.4894006 -0.121639E-02  0.649E-02    1.39       1.0  T
   8    -11.4893985  0.203771E-05  0.488E-02    1.39       1.0  T
   9    -11.4894088 -0.102982E-04  0.302E-02    1.39       1.0  T
  10    -11.4894244 -0.156072E-04  0.128E-02    1.39       2.3  T
  11    -11.4894268 -0.241576E-05  0.527E-03    1.39       5.5  T
  12    -11.4894273 -0.409556E-06  0.269E-03    1.39      10.7  T
  13    -11.4894274 -0.177113E-06  0.773E-04    1.39      37.4  T
  14    -11.4894274 -0.585799E-08  0.322E-04    1.39      89.6  T
     SCC iter.                  ...        0 min,  0.003 sec
     gradient                   ...        0 min,  0.001 sec
 * total energy  :   -11.2274426 Eh     change       -0.9150881E-03 Eh
   gradient norm :     0.0181590 Eh/α   predicted    -0.5560784E-03 ( -39.23%)
   displ. norm   :     0.7377405 α      lambda       -0.4450469E-02
   maximum displ.:     0.3471698 α      in ANC's #19, #17, #6, ...

........................................................................
.............................. CYCLE   36 ..............................
........................................................................
   1    -11.4873302 -0.114873E+02  0.170E+00    1.31       0.0  T
   2    -11.3348153  0.152515E+00  0.281E+00    1.19       1.0  T
   3    -11.4281643 -0.933490E-01  0.182E+00    1.18       1.0  T
   4    -11.3745917  0.535726E-01  0.214E+00    1.15       1.0  T
   5    -11.4682034 -0.936117E-01  0.101E+00    1.24       1.0  T
   6    -11.4890095 -0.208061E-01  0.467E-01    1.25       1.0  T
   7    -11.4949073 -0.589777E-02  0.306E-01    1.23       1.0  T
   8    -11.4948846  0.226222E-04  0.311E-01    1.23       1.0  T
   9    -11.4948902 -0.556957E-05  0.201E-01    1.24       1.0  T
  10    -11.4953562 -0.465940E-03  0.289E-02    1.25       1.0  T
  11    -11.4953509  0.527912E-05  0.301E-02    1.25       1.0  T
  12    -11.4953282  0.227062E-04  0.355E-02    1.25       1.0  T
  13    -11.4953570 -0.288224E-04  0.126E-02    1.25       2.3  T
  14    -11.4953596 -0.265284E-05  0.398E-03    1.25       7.3  T
  15    -11.4953597 -0.489758E-07  0.131E-03    1.25      22.1  T
  16    -11.4953597 -0.388273E-07  0.280E-04    1.25     103.0  T
  17    -11.4953597 -0.675529E-09  0.124E-04    1.25     231.9  T
     SCC iter.                  ...        0 min,  0.003 sec
     gradient                   ...        0 min,  0.000 sec
 * total energy  :   -11.2246276 Eh     change        0.2815027E-02 Eh
   gradient norm :     0.0844384 Eh/α   predicted    -0.3436324E-02 (-222.07%)
   displ. norm   :     0.3639016 α      lambda       -0.1871415E-01
   maximum displ.:     0.1844931 α      in ANC's #19, #17, #7, ...

........................................................................
.............................. CYCLE   37 ..............................
........................................................................
   1    -11.4861011 -0.114861E+02  0.103E+00    1.36       0.0  T
   2    -11.3090927  0.177008E+00  0.285E+00    0.83       1.0  T
   3    -11.4834870 -0.174394E+00  0.910E-01    1.25       1.0  T
   4    -11.4659255  0.175616E-01  0.100E+00    1.34       1.0  T
   5    -11.4828725 -0.169471E-01  0.659E-01    1.33       1.0  T
   6    -11.4890683 -0.619581E-02  0.531E-01    1.32       1.0  T
   7    -11.4941579 -0.508957E-02  0.364E-01    1.34       1.0  T
   8    -11.4963985 -0.224063E-02  0.158E-01    1.33       1.0  T
   9    -11.4967149 -0.316355E-03  0.552E-02    1.33       1.0  T
  10    -11.4967013  0.135934E-04  0.463E-02    1.32       1.0  T
  11    -11.4967392 -0.378596E-04  0.212E-02    1.32       1.4  T
  12    -11.4967459 -0.676558E-05  0.125E-02    1.32       2.3  T
  13    -11.4967479 -0.198154E-05  0.229E-03    1.32      12.6  T
  14    -11.4967480 -0.124629E-06  0.647E-04    1.32      44.6  T
  15    -11.4967480 -0.776748E-08  0.200E-04    1.32     144.5  T
     SCC iter.                  ...        0 min,  0.004 sec
     gradient                   ...        0 min,  0.001 sec
 * total energy  :   -11.2300298 Eh     change       -0.5402132E-02 Eh
   gradient norm :     0.0327933 Eh/α   predicted    -0.1059617E-01 (  96.15%)
   displ. norm   :     0.5208035 α      lambda       -0.3869892E-02
   maximum displ.:     0.2737627 α      in ANC's #1, #3, #19, ...

........................................................................
.............................. CYCLE   38 ..............................
........................................................................
   1    -11.4840822 -0.114841E+02  0.115E+00    1.37       0.0  T
   2    -11.4744265  0.965569E-02  0.123E+00    1.20       1.0  T
   3    -11.4434070  0.310196E-01  0.166E+00    1.33       1.0  T
   4    -11.3663457  0.770613E-01  0.213E+00    1.17       1.0  T
   5    -11.4589631 -0.926174E-01  0.109E+00    1.24       1.0  T
   6    -11.4795961 -0.206330E-01  0.611E-01    1.27       1.0  T
   7    -11.4842838 -0.468767E-02  0.296E-01    1.29       1.0  T
   8    -11.4851910 -0.907133E-03  0.248E-01    1.29       1.0  T
   9    -11.4852068 -0.158033E-04  0.235E-01    1.29       1.0  T
[...]
.............................. CYCLE  135 ..............................
........................................................................
   1    -11.6002918 -0.116003E+02  0.648E-02    1.38       0.0  T
   2    -11.6002902  0.161407E-05  0.400E-02    1.38       1.0  T
   3    -11.6001377  0.152506E-03  0.619E-02    1.39       1.0  T
   4    -11.6002782 -0.140557E-03  0.197E-02    1.38       1.5  T
   5    -11.6002919 -0.136963E-04  0.514E-03    1.38       5.6  T
   6    -11.6002919  0.320044E-07  0.445E-03    1.38       6.5  T
   7    -11.6002922 -0.271142E-06  0.256E-03    1.38      11.3  T
   8    -11.6002923 -0.152595E-06  0.789E-04    1.38      36.6  T
   9    -11.6002923 -0.148783E-07  0.238E-04    1.38     121.3  T
     SCC iter.                  ...        0 min,  0.002 sec
     gradient                   ...        0 min,  0.000 sec
 * total energy  :   -11.3582675 Eh     change       -0.8302492E-05 Eh
   gradient norm :     0.0006828 Eh/α   predicted    -0.4829708E-05 ( -41.83%)
   displ. norm   :     0.0525993 α      lambda       -0.4211574E-05
   maximum displ.:     0.0285641 α      in ANC's #5, #7, #4, ...

........................................................................
.............................. CYCLE  136 ..............................
........................................................................
   1    -11.5999454 -0.115999E+02  0.510E-02    1.39       0.0  T
   2    -11.5999436  0.180799E-05  0.320E-02    1.39       1.0  T
   3    -11.5998534  0.901807E-04  0.563E-02    1.38       1.0  T
   4    -11.5999288 -0.753384E-04  0.210E-02    1.39       1.4  T
   5    -11.5999420 -0.132480E-04  0.113E-02    1.39       2.5  T
   6    -11.5999457 -0.366892E-05  0.549E-03    1.39       5.3  T
   7    -11.5999458 -0.143215E-06  0.475E-03    1.39       6.1  T
   8    -11.5999463 -0.422567E-06  0.127E-03    1.39      22.7  T
   9    -11.5999463 -0.416904E-07  0.395E-04    1.39      73.0  T
  10    -11.5999463 -0.214691E-08  0.157E-04    1.39     183.4  T
     SCC iter.                  ...        0 min,  0.002 sec
     gradient                   ...        0 min,  0.000 sec
 * total energy  :   -11.3582714 Eh     change       -0.3902642E-05 Eh
   gradient norm :     0.0007338 Eh/α   predicted    -0.2107393E-05 ( -46.00%)
   displ. norm   :     0.0502088 α      lambda       -0.4240987E-05
   maximum displ.:     0.0308789 α      in ANC's #4, #5, #2, ...

   *** GEOMETRY OPTIMIZATION CONVERGED AFTER 136 ITERATIONS ***

------------------------------------------------------------------------
 total energy gain   :        -0.7045573 Eh     -442.1164 kcal/mol
 total RMSD          :         2.9882646 a0        1.5813 Å
 total power (kW/mol):       -13.6015813 (step)-3790.6201 (real)
------------------------------------------------------------------------

 ANCopt (total)                0 d,  0 h,  0 min,  0.488 sec
 optimizer setup                ...        0 min,  0.000 sec (  0.006%)
 model hessian                  ...        0 min,  0.001 sec (  0.230%)
 ANC generation                 ...        0 min,  0.001 sec (  0.115%)
 coordinate transformation      ...        0 min,  0.000 sec (  0.080%)
 single point calculation       ...        0 min,  0.474 sec ( 97.192%)
 optimization log               ...        0 min,  0.004 sec (  0.751%)
 hessian update                 ...        0 min,  0.003 sec (  0.607%)
 rational function              ...        0 min,  0.003 sec (  0.567%)

================
 final structure:
================
12
 xtb: 6.5.1 (conda-forge)
Be           0.92545404714583       -0.71876856994575        2.12439993232558
B            0.43533524956618        0.59502173089635        1.13953116517159
B            0.73913253080108        1.88251394094456        1.82468681490511
B            1.29460018109302        1.08039729110274        2.97943738555773
C            2.19634882996607       -0.60948784365579        4.79043541040741
C            1.64605727391025       -0.18931322056477        3.65396724298089
H            2.55051091879868        0.07976028629217        5.55571593358883
H            2.33506681325491       -1.65564635433414        5.04137647796304
H            0.81465100341872        2.44023649676335        4.79676483908174
H            0.69042436934650        2.84255609818231        5.47097892772192
H            0.06419531978327        0.15653926411103        6.79378699628819
H           -0.13977653630692       -0.11183111957890        7.49591887459507

 Bond Distances (Angstroems)
 ---------------------------
Be1-B2=1.7135        Be1-B4=2.0259        Be1-C6=1.7718        B2-Be1=1.7135        B2-B3=1.4898         B2-B4=2.0879         
B3-B2=1.4898         B3-B4=1.5117         B4-Be1=2.0259        B4-B2=2.0879         B4-B3=1.5117         B4-C6=1.4801         
C5-C6=1.3308         C5-H7=1.0891         C5-H8=1.0847         C6-Be1=1.7718        C6-B4=1.4801         C6-C5=1.3308         
H7-C5=1.0891         H8-C5=1.0847         H9-H10=0.7949        H10-H9=0.7949        H11-H12=0.7789       H12-H11=0.7789       
 H  H  Rav=0.7869 sigma=0.0080  Rmin=0.7789  Rmax=0.7949     2
 B  Be Rav=1.8697 sigma=0.1562  Rmin=1.7135  Rmax=2.0259     2
 B  B  Rav=1.6965 sigma=0.2769  Rmin=1.4898  Rmax=2.0879     3
 C  H  Rav=1.0869 sigma=0.0022  Rmin=1.0847  Rmax=1.0891     2
 C  Be Rav=1.7718 sigma=0.0000  Rmin=1.7718  Rmax=1.7718     1
 C  B  Rav=1.4801 sigma=0.0000  Rmin=1.4801  Rmax=1.4801     1
 C  C  Rav=1.3308 sigma=0.0000  Rmin=1.3308  Rmax=1.3308     1

 selected bond angles (degree)
 --------------------
B4-Be1-B2= 67.28               C6-Be1-B2=112.54               C6-Be1-B4= 45.26               B3-B2-Be1=109.87               
B4-B2-Be1= 63.51               B4-B2-B3= 46.36                B4-B3-B2= 88.15                B2-B4-Be1= 49.20               
B3-B4-Be1= 94.70               B3-B4-B2= 45.49                C6-B4-Be1= 58.25               C6-B4-B2=107.45                
C6-B4-B3=152.94                H7-C5-C6=122.33                H8-C5-C6=123.71                H8-C5-H7=113.97                
B4-C6-Be1= 76.49               C5-C6-Be1=144.20               C5-C6-B4=139.31                

 selected dihedral angles (degree)
 ---------------------------------
B3-B2-Be1-B4=  0.19           B3-B2-Be1-C6=359.91           B4-B2-Be1-C6=359.73           B4-B3-B2-Be1=359.77           
B2-B4-Be1-C6=179.64           B3-B4-Be1-B2=359.83           B3-B4-Be1-C6=179.47           C6-B4-Be1-B2=180.36           
Be1-B4-B2-B3=180.24           B3-B4-B2-Be1=179.76           C6-B4-B2-Be1=  0.32           C6-B4-B2-B3=180.56            
Be1-B4-B3-B2=  0.18           C6-B4-B3-B2=  1.18            B4-C6-Be1-B2=  0.36           C5-C6-Be1-B2=180.14           
C5-C6-Be1-B4=179.78           Be1-C6-B4-B2=359.72           Be1-C6-B4-B3=358.84           C5-C6-B4-Be1=180.20           
C5-C6-B4-B2=179.92            C5-C6-B4-B3=179.04            Be1-C6-C5-H7=179.92           Be1-C6-C5-H8=  0.00           
B4-C6-C5-H7=359.59            B4-C6-C5-H8=179.66            

 CMA Distance (Angstroems)
 ---------------------------
R(CMA):  1.6890
           -------------------------------------------------
          |                Final Singlepoint                |
           -------------------------------------------------

          ...................................................
          :                      SETUP                      :
          :.................................................:
          :  # basis functions                  30          :
          :  # atomic orbitals                  30          :
          :  # shells                           18          :
          :  # electrons                        25          :
          :  max. iterations                   250          :
          :  Hamiltonian                  GFN2-xTB          :
          :  restarted?                      false          :
          :  GBSA solvation                  false          :
          :  PC potential                    false          :
          :  electronic temp.          300.0000000     K    :
          :  accuracy                    1.0000000          :
          :  -> integral cutoff          0.2500000E+02      :
          :  -> integral neglect         0.1000000E-07      :
          :  -> SCF convergence          0.1000000E-05 Eh   :
          :  -> wf. convergence          0.1000000E-03 e    :
          :  Broyden damping             0.4000000          :
          ...................................................

 iter      E             dE          RMSdq      gap      omega  full diag
   1    -11.5999463 -0.115999E+02  0.937E-05    1.39       0.0  T
   2    -11.5999463  0.261542E-08  0.246E-04    1.39     117.3  T
   3    -11.5999463 -0.270083E-08  0.644E-05    1.39     448.2  T

   *** convergence criteria satisfied after 3 iterations ***

         #    Occupation            Energy/Eh            Energy/eV
      -------------------------------------------------------------
         1        2.0000           -0.5496332             -14.9563
       ...           ...                  ...                  ...
         7        2.0000           -0.3963718             -10.7858
         8        2.0000           -0.3651926              -9.9374
         9        2.0000           -0.3573997              -9.7253
        10        2.0000           -0.3164044              -8.6098
        11        2.0000           -0.3132440              -8.5238
        12        2.0000           -0.2935873              -7.9889
        13        1.0000           -0.2537337              -6.9044 (HOMO)
        14                         -0.2026847              -5.5153 (LUMO)
        15                         -0.1723047              -4.6887
        16                         -0.1640953              -4.4653
        17                         -0.1586965              -4.3184
        18                         -0.0636356              -1.7316
       ...                                ...                  ...
        30                          1.4245029              38.7627
      -------------------------------------------------------------
                  HL-Gap            0.0510491 Eh            1.3891 eV
             Fermi-level           -0.2509348 Eh           -6.8283 eV

 SCC (total)                   0 d,  0 h,  0 min,  0.001 sec
 SCC setup                      ...        0 min,  0.000 sec (  1.469%)
 Dispersion                     ...        0 min,  0.000 sec (  3.691%)
 classical contributions        ...        0 min,  0.000 sec (  1.469%)
 integral evaluation            ...        0 min,  0.000 sec ( 11.929%)
 iterations                     ...        0 min,  0.000 sec ( 30.960%)
 molecular gradient             ...        0 min,  0.001 sec ( 48.032%)
 printout                       ...        0 min,  0.000 sec (  1.907%)

         :::::::::::::::::::::::::::::::::::::::::::::::::::::
         ::                     SUMMARY                     ::
         :::::::::::::::::::::::::::::::::::::::::::::::::::::
         :: total energy             -11.358271372292 Eh    ::
         :: gradient norm              0.000734265269 Eh/a0 ::
         :: HOMO-LUMO gap              1.389115977643 eV    ::
         ::.................................................::
         :: SCC energy               -11.599946299317 Eh    ::
         :: -> isotropic ES           -0.003428428971 Eh    ::
         :: -> anisotropic ES          0.016278109332 Eh    ::
         :: -> anisotropic XC         -0.001651591607 Eh    ::
         :: -> dispersion             -0.006034111651 Eh    ::
         :: repulsion energy           0.241656662626 Eh    ::
         :: add. restraining           0.000000000000 Eh    ::
         :: total charge              -0.000000000000 e     ::
         :::::::::::::::::::::::::::::::::::::::::::::::::::::

           -------------------------------------------------
          |                Property Printout                |
           -------------------------------------------------

    * Orbital Energies and Occupations

         #    Occupation            Energy/Eh            Energy/eV
      -------------------------------------------------------------
         1        2.0000           -0.5496332             -14.9563
         2        2.0000           -0.4847195             -13.1899
         3        2.0000           -0.4569704             -12.4348
         4        2.0000           -0.4499294             -12.2432
         5        2.0000           -0.4394259             -11.9574
         6        2.0000           -0.4292241             -11.6798
         7        2.0000           -0.3963718             -10.7858
         8        2.0000           -0.3651926              -9.9374
         9        2.0000           -0.3573997              -9.7253
        10        2.0000           -0.3164044              -8.6098
        11        2.0000           -0.3132440              -8.5238
        12        2.0000           -0.2935873              -7.9889
        13        1.0000           -0.2537337              -6.9044 (HOMO)
        14                         -0.2026847              -5.5153 (LUMO)
        15                         -0.1723047              -4.6887
        16                         -0.1640953              -4.4653
        17                         -0.1586965              -4.3184
        18                         -0.0636356              -1.7316
        19                         -0.0438260              -1.1926
        20                         -0.0019613              -0.0534
        21                          0.1349819               3.6730
        22                          0.1598333               4.3493
        23                          0.1873993               5.0994
        24                          0.2354836               6.4078
       ...                                ...                  ...
        30                          1.4245029              38.7627
      -------------------------------------------------------------
                  HL-Gap            0.0510491 Eh            1.3891 eV
             Fermi-level           -0.2509348 Eh           -6.8283 eV

     #   Z          covCN         q      C6AA      α(0)
     1   4 Be       2.598     0.402    14.652     8.837
     2   5 B        2.310    -0.058    34.508    11.475
     3   5 B        2.007    -0.012    44.207    13.960
     4   5 B        3.111     0.077    20.078     7.473
     5   6 C        2.831    -0.084    30.085     8.988
     6   6 C        2.720    -0.257    34.973     9.681
     7   1 H        0.925    -0.026     3.543     2.944
     8   1 H        0.925    -0.025     3.523     2.935
     9   1 H        0.752     0.008     3.032     2.748
    10   1 H        0.752    -0.024     3.645     3.013
    11   1 H        0.807     0.008     2.977     2.710
    12   1 H        0.807    -0.009     3.278     2.844

 Mol. C6AA /au·bohr⁶  :       1826.034893
 Mol. C8AA /au·bohr⁸  :      52711.964478
 Mol. α(0) /au        :         77.607312


Wiberg/Mayer (AO) data.
largest (>0.10) Wiberg bond orders for each atom

 ---------------------------------------------------------------------------
     #   Z sym  total        # sym  WBO       # sym  WBO       # sym  WBO
 ---------------------------------------------------------------------------
     1   4 Be   2.014 --     2 B    1.059     6 C    0.623     4 B    0.173
                             3 B    0.142
     2   5 B    3.280 --     3 B    1.567     1 Be   1.059     4 B    0.513
     3   5 B    3.152 --     2 B    1.567     4 B    1.326     1 Be   0.142
     4   5 B    3.377 --     3 B    1.326     6 C    1.289     2 B    0.513
                             1 Be   0.173
     5   6 C    3.977 --     6 C    1.852     8 H    0.973     7 H    0.960
     6   6 C    3.831 --     5 C    1.852     4 B    1.289     1 Be   0.623
     7   1 H    0.991 --     5 C    0.960
     8   1 H    0.999 --     5 C    0.973
     9   1 H    1.000 --    10 H    0.963
    10   1 H    0.993 --     9 H    0.963
    11   1 H    1.000 --    12 H    0.998
    12   1 H    1.000 --    11 H    0.998
 ---------------------------------------------------------------------------

Topologies differ in total number of bonds
Writing topology from bond orders to xtbtopo.mol

molecular dipole:
                 x           y           z       tot (Debye)
 q only:       -0.569      -0.324      -1.368
   full:       -0.098      -0.335      -0.355       1.266
molecular quadrupole (traceless):
                xx          xy          yy          xz          yz          zz
 q only:        5.740       0.317      10.725     -11.177      -0.530     -16.465
  q+dip:       -1.279      -1.446       7.668      -2.696      -3.751      -6.389
   full:        1.773      -0.254       7.411      -5.394      -1.517      -9.185
Note: The following floating-point exceptions are signalling: IEEE_UNDERFLOW_FLAG
normal termination of xtb

           -------------------------------------------------
          |                Geometry Summary                 |
           -------------------------------------------------

      molecular mass/u    :       71.5143835
   center of mass at/Å    :        1.2242135       0.3660027       3.0799358
  moments of inertia/u·Å² :        0.7255415E+02   0.2014083E+03   0.2450917E+03
rotational constants/cm⁻¹ :        0.2323455E+00   0.8369880E-01   0.6878092E-01

 * 8 selected distances

     #   Z          #   Z                                           value/Å
     1   4 Be       2   5 B                                       1.7135427 (max)
     2   5 B        3   5 B                                       1.4897542
     3   5 B        4   5 B                                       1.5117489
     4   5 B        6   6 C                                       1.4800939
     5   6 C        6   6 C                                       1.3307621
     5   6 C        7   1 H                                       1.0891043
     5   6 C        8   1 H                                       1.0847405
    11   1 H       12   1 H                                       0.7788559 (min)

 * 6 distinct bonds (by element types)

   Z      Z             #   av. dist./Å        max./Å        min./Å
   1 H    1 H           1     0.7788559     0.7788559     0.7788559
   4 Be   5 B           1     1.7135427     1.7135427     1.7135427
   5 B    5 B           2     1.5007516     1.5117489     1.4897542
   1 H    6 C           2     1.0869224     1.0891043     1.0847405
   5 B    6 C           1     1.4800939     1.4800939     1.4800939
   6 C    6 C           1     1.3307621     1.3307621     1.3307621


optimized geometry written to: xtbopt.xyz


           -------------------------------------------------
          | TOTAL ENERGY              -11.358271372292 Eh   |
          | GRADIENT NORM               0.000734265269 Eh/α |
          | HOMO-LUMO GAP               1.389115977643 eV   |
           -------------------------------------------------
########################################################################
[WARNING] Runtime exception occurred
-2- restart_readRestart: Dimension missmatch in restart file.
-1- restart_readRestart: Number of electron missmatch in restart file.
########################################################################

------------------------------------------------------------------------
 * finished run on 2025/06/07 at 03:27:44.032     
------------------------------------------------------------------------
 total:
 * wall-time:     0 d,  0 h,  0 min,  0.509 sec
 *  cpu-time:     0 d,  0 h,  0 min,  7.070 sec
 * ratio c/w:    13.889 speedup
 SCF:
 * wall-time:     0 d,  0 h,  0 min,  0.016 sec
 *  cpu-time:     0 d,  0 h,  0 min,  0.188 sec
 * ratio c/w:    11.793 speedup
 ANC optimizer:
 * wall-time:     0 d,  0 h,  0 min,  0.490 sec
 *  cpu-time:     0 d,  0 h,  0 min,  6.849 sec
 * ratio c/w:    13.982 speedup

