      -----------------------------------------------------------      
     |                   =====================                   |     
     |                           x T B                           |     
     |                   =====================                   |     
     |                         S. Grimme                         |     
     |          Mulliken Center for Theoretical Chemistry        |     
     |                    University of Bonn                     |     
      -----------------------------------------------------------      

   * xtb version 6.5.1 (conda-forge) compiled by 'runner@Mac-1657629245115.local' on 2022-07-12

   xtb is free software: you can redistribute it and/or modify it under
   the terms of the GNU Lesser General Public License as published by
   the Free Software Foundation, either version 3 of the License, or
   (at your option) any later version.
   
   xtb is distributed in the hope that it will be useful,
   but WITHOUT ANY WARRANTY; without even the implied warranty of
   MERCHANTABILITY or FITNESS FOR A PARTICULAR PURPOSE.  See the
   GNU Lesser General Public License for more details.
   
   Cite this work as:
   * C. Bannwarth, E. Caldeweyher, S. Ehlert, A. Hansen, P. Pracht,
     J. Seibert, S. Spicher, S. Grimme, WIREs Comput. Mol. Sci., 2020, 11,
     e01493. DOI: 10.1002/wcms.1493
   
   for GFN2-xTB:
   * C. Bannwarth, S. Ehlert and S. Grimme., J. Chem. Theory Comput., 2019,
     15, 1652-1671. DOI: 10.1021/acs.jctc.8b01176
   for GFN1-xTB:
   * S. Grimme, C. Bannwarth, P. Shushkov, J. Chem. Theory Comput., 2017,
     13, 1989-2009. DOI: 10.1021/acs.jctc.7b00118
   for GFN0-xTB:
   * P. Pracht, E. Caldeweyher, S. Ehlert, S. Grimme, ChemRxiv, 2019, preprint.
     DOI: 10.26434/chemrxiv.8326202.v1
   for GFN-FF:
   * S. Spicher and S. Grimme, Angew. Chem. Int. Ed., 2020, 59, 15665-15673.
     DOI: 10.1002/anie.202004239
   
   for ALPB and GBSA implicit solvation:
   * S. Ehlert, M. Stahn, S. Spicher, S. Grimme, J. Chem. Theory Comput.,
     2021, 17, 4250-4261. DOI: 10.1021/acs.jctc.1c00471
   
   for DFT-D4:
   * E. Caldeweyher, C. Bannwarth and S. Grimme, J. Chem. Phys., 2017,
     147, 034112. DOI: 10.1063/1.4993215
   * E. Caldeweyher, S. Ehlert, A. Hansen, H. Neugebauer, S. Spicher,
     C. Bannwarth and S. Grimme, J. Chem. Phys., 2019, 150, 154122.
     DOI: 10.1063/1.5090222
   * E. Caldeweyher, J.-M. Mewes, S. Ehlert and S. Grimme, Phys. Chem. Chem. Phys.
     2020, 22, 8499-8512. DOI: 10.1039/D0CP00502A
   
   for sTDA-xTB:
   * S. Grimme and C. Bannwarth, J. Chem. Phys., 2016, 145, 054103.
     DOI: 10.1063/1.4959605
   
   in the mass-spec context:
   * V. Asgeirsson, C. Bauer and S. Grimme, Chem. Sci., 2017, 8, 4879.
     DOI: 10.1039/c7sc00601b
   * J. Koopman and S. Grimme, ACS Omega 2019, 4, 12, 15120-15133.
     DOI: 10.1021/acsomega.9b02011
   
   for metadynamics refer to:
   * S. Grimme, J. Chem. Theory Comput., 2019, 155, 2847-2862
     DOI: 10.1021/acs.jctc.9b00143
   
   for SPH calculations refer to:
   * S. Spicher and S. Grimme, J. Chem. Theory Comput., 2021, 17, 1701-1714
     DOI: 10.1021/acs.jctc.0c01306
   
   with help from (in alphabetical order)
   P. Atkinson, C. Bannwarth, F. Bohle, G. Brandenburg, E. Caldeweyher
   M. Checinski, S. Dohm, S. Ehlert, S. Ehrlich, I. Gerasimov, C. Hölzer
   A. Katbashev, J. Koopman, C. Lavigne, S. Lehtola, F. März, M. Müller,
   F. Musil, H. Neugebauer, J. Pisarek, C. Plett, P. Pracht, F. Pultar,
   J. Seibert, P. Shushkov, S. Spicher, M. Stahn, M. Steiner, T. Strunk,
   J. Stückrath, T. Rose, and J. Unsleber
   
 * started run on 2025/06/07 at 03:27:46.376     

           -------------------------------------------------
          |                Calculation Setup                |
           -------------------------------------------------

          program call               : xtb B3BeH5.xyz --gfn 2 --opt
          coordinate file            : B3BeH5.xyz
          omp threads                :                    16

   ID    Z sym.   atoms
    1    4 Be     1
    2    5 B      2-4
    3    1 H      5-9

molecular fragmentation (1/2 indicates fragments):
122222222
# atoms in fragment 1/2:     1     8
 fragment masses (1/2) :        9.01       37.47
CMA distance (Bohr)    :   5.010
constraining FC (au)   :  0.0500

           -------------------------------------------------
          |                 G F N 2 - x T B                 |
           -------------------------------------------------

        Reference                      10.1021/acs.jctc.8b01176
      * Hamiltonian:
        H0-scaling (s, p, d)           1.850000    2.230000    2.230000
        zeta-weighting                 0.500000
      * Dispersion:
        s8                             2.700000
        a1                             0.520000
        a2                             5.000000
        s9                             5.000000
      * Repulsion:
        kExp                           1.500000    1.000000
        rExp                           1.000000
      * Coulomb:
        alpha                          2.000000
        third order                    shell-resolved
        anisotropic                    true
        a3                             3.000000
        a5                             4.000000
        cn-shift                       1.200000
        cn-exp                         4.000000
        max-rad                        5.000000


          ...................................................
          :                      SETUP                      :
          :.................................................:
          :  # basis functions                  21          :
          :  # atomic orbitals                  21          :
          :  # shells                           13          :
          :  # electrons                        16          :
          :  max. iterations                   250          :
          :  Hamiltonian                  GFN2-xTB          :
          :  restarted?                      false          :
          :  GBSA solvation                  false          :
          :  PC potential                    false          :
          :  electronic temp.          300.0000000     K    :
          :  accuracy                    1.0000000          :
          :  -> integral cutoff          0.2500000E+02      :
          :  -> integral neglect         0.1000000E-07      :
          :  -> SCF convergence          0.1000000E-05 Eh   :
          :  -> wf. convergence          0.1000000E-03 e    :
          :  Broyden damping             0.4000000          :
          ...................................................

 iter      E             dE          RMSdq      gap      omega  full diag
   1     15.8804746  0.158805E+02  0.246E+01    0.44       0.0  T
   2     -1.2923944 -0.171729E+02  0.223E+01    0.58       1.0  T
   3     -0.9721834  0.320211E+00  0.186E+01    0.86       1.0  T
   4     -0.6660328  0.306151E+00  0.168E+01    0.80       1.0  T
   5     -4.0496737 -0.338364E+01  0.117E+01    0.37       1.0  T
   6     -3.3174746  0.732199E+00  0.113E+01    0.86       1.0  T
   7     -3.6171458 -0.299671E+00  0.140E+01    0.46       1.0  T
   8     -5.3891030 -0.177196E+01  0.927E+00    0.18       1.0  T
   9     -5.4299998 -0.408968E-01  0.860E+00    0.19       1.0  T
  10     -0.8547803  0.457522E+01  0.155E+01    0.58       1.0  T
  11     -5.6021594 -0.474738E+01  0.907E+00    0.36       1.0  T
  12     -5.5646158  0.375437E-01  0.896E+00    0.34       1.0  T
  13     -1.1542891  0.441033E+01  0.151E+01    0.55       1.0  T
  14      4.0207059  0.517500E+01  0.170E+01    0.69       1.0  T
  15     -5.8375909 -0.985830E+01  0.872E+00    0.23       1.0  T
  16     -5.8532338 -0.156429E-01  0.664E+00    0.31       1.0  T
  17     -5.7458916  0.107342E+00  0.519E+00    0.26       1.0  T
  18     -6.0060487 -0.260157E+00  0.379E+00    0.23       1.0  T
  19     -6.0518918 -0.458431E-01  0.372E+00    0.23       1.0  T
  20     -6.1313608 -0.794691E-01  0.462E+00    0.21       1.0  T
  21     -6.1006840  0.306768E-01  0.414E+00    0.22       1.0  T
  22     -6.1369281 -0.362441E-01  0.453E+00    0.21       1.0  T
  23     -6.0458544  0.910737E-01  0.379E+00    0.21       1.0  T
  24     -6.1096367 -0.637823E-01  0.335E+00    0.20       1.0  T
  25     -6.1466666 -0.370299E-01  0.401E+00    0.19       1.0  T
  26     -6.1491024 -0.243571E-02  0.376E+00    0.19       1.0  T
  27     -6.1284145  0.206878E-01  0.444E+00    0.18       1.0  T
  28     -6.1064854  0.219292E-01  0.473E+00    0.18       1.0  T
  29     -6.1259994 -0.195140E-01  0.431E+00    0.19       1.0  T
  30     -6.1454032 -0.194038E-01  0.362E+00    0.19       1.0  T
  31     -6.1516353 -0.623204E-02  0.303E+00    0.19       1.0  T
  32     -6.1355830  0.160522E-01  0.308E+00    0.19       1.0  T
  33     -6.1364430 -0.859987E-03  0.306E+00    0.19       1.0  T
  34     -6.1395034 -0.306040E-02  0.289E+00    0.19       1.0  T
  35     -6.1356909  0.381253E-02  0.312E+00    0.19       1.0  T
  36     -6.0954936  0.401973E-01  0.341E+00    0.19       1.0  T
  37     -5.9679170  0.127577E+00  0.428E+00    0.19       1.0  T
  38     -5.9855634 -0.176464E-01  0.401E+00    0.19       1.0  T
  39     -6.0553407 -0.697773E-01  0.302E+00    0.20       1.0  T
  40     -6.0967550 -0.414143E-01  0.263E+00    0.20       1.0  T
  41     -6.1434028 -0.466478E-01  0.176E+00    0.20       1.0  T
  42     -6.1524474 -0.904464E-02  0.146E+00    0.21       1.0  T
  43     -6.1516014  0.846005E-03  0.137E+00    0.20       1.0  T
  44     -6.1525616 -0.960212E-03  0.121E+00    0.21       1.0  T
  45     -6.1557926 -0.323096E-02  0.960E-01    0.21       1.0  T
  46     -6.1552821  0.510538E-03  0.837E-01    0.21       1.0  T
  47     -6.1559363 -0.654206E-03  0.587E-01    0.21       1.0  T
  48     -6.1568435 -0.907174E-03  0.506E-01    0.21       1.0  T
  49     -6.1565711  0.272379E-03  0.489E-01    0.21       1.0  T
  50     -6.1595242 -0.295312E-02  0.405E-01    0.21       1.0  T
  51     -6.1603696 -0.845421E-03  0.467E-01    0.21       1.0  T
  52     -6.1603814 -0.118084E-04  0.463E-01    0.21       1.0  T
  53     -6.1604015 -0.200835E-04  0.428E-01    0.21       1.0  T
  54     -6.1603041  0.974201E-04  0.427E-01    0.21       1.0  T
  55     -6.1601755  0.128554E-03  0.419E-01    0.21       1.0  T
  56     -6.1599099  0.265651E-03  0.389E-01    0.21       1.0  T
  57     -6.1598208  0.890603E-04  0.348E-01    0.21       1.0  T
  58     -6.1600912 -0.270411E-03  0.256E-01    0.21       1.0  T
  59     -6.1602043 -0.113040E-03  0.222E-01    0.21       1.0  T
  60     -6.1603023 -0.979942E-04  0.166E-01    0.21       1.0  T
  61     -6.1603808 -0.785138E-04  0.101E-01    0.21       1.0  T
  62     -6.1604168 -0.360393E-04  0.569E-02    0.21       1.0  T
  63     -6.1604298 -0.129537E-04  0.337E-02    0.21       1.0  T
  64     -6.1604331 -0.335111E-05  0.221E-02    0.21       1.5  T
  65     -6.1604330  0.142983E-06  0.133E-02    0.21       2.5  T
  66     -6.1604331 -0.107208E-06  0.852E-03    0.21       3.9  T
  67     -6.1604336 -0.530817E-06  0.539E-03    0.21       6.2  T
  68     -6.1604338 -0.172738E-06  0.297E-03    0.21      11.2  T
  69     -6.1604339 -0.655797E-07  0.180E-03    0.21      18.6  T
  70     -6.1604339  0.299234E-08  0.163E-03    0.21      20.4  T
  71     -6.1604339 -0.626724E-08  0.630E-04    0.21      52.9  T
  72     -6.1604339  0.450277E-09  0.236E-04    0.21     141.0  T

   *** convergence criteria satisfied after 72 iterations ***

         #    Occupation            Energy/Eh            Energy/eV
      -------------------------------------------------------------
         1        2.0000           -0.5621860             -15.2979
         2        2.0000           -0.4220466             -11.4845
         3        2.0000           -0.3635871              -9.8937
         4        2.0000           -0.3108308              -8.4581
         5        2.0000           -0.3035368              -8.2597
         6        2.0000           -0.2839031              -7.7254
         7        2.0000           -0.2476732              -6.7395
         8        1.9654           -0.2361983              -6.4273 (HOMO)
         9        0.0346           -0.2285225              -6.2184 (LUMO)
        10                         -0.2060048              -5.6057
        11                         -0.2046184              -5.5679
        12                         -0.1791577              -4.8751
        13                         -0.1424717              -3.8769
       ...                                ...                  ...
        21                          0.6519904              17.7416
      -------------------------------------------------------------
                  HL-Gap            0.0076758 Eh            0.2089 eV
             Fermi-level           -0.2323604 Eh           -6.3228 eV

 SCC (total)                   0 d,  0 h,  0 min,  0.013 sec
 SCC setup                      ...        0 min,  0.000 sec (  0.453%)
 Dispersion                     ...        0 min,  0.000 sec (  0.871%)
 classical contributions        ...        0 min,  0.000 sec (  0.310%)
 integral evaluation            ...        0 min,  0.000 sec (  1.058%)
 iterations                     ...        0 min,  0.012 sec ( 92.690%)
 molecular gradient             ...        0 min,  0.000 sec (  3.146%)
 printout                       ...        0 min,  0.000 sec (  1.362%)

         :::::::::::::::::::::::::::::::::::::::::::::::::::::
         ::                     SUMMARY                     ::
         :::::::::::::::::::::::::::::::::::::::::::::::::::::
         :: total energy              -6.092731263725 Eh    ::
         :: gradient norm              0.251096184921 Eh/a0 ::
         :: HOMO-LUMO gap              0.208869286331 eV    ::
         ::.................................................::
         :: SCC energy                -6.160433859616 Eh    ::
         :: -> isotropic ES            0.001053933010 Eh    ::
         :: -> anisotropic ES          0.002449877532 Eh    ::
         :: -> anisotropic XC         -0.011512906015 Eh    ::
         :: -> dispersion             -0.008916626976 Eh    ::
         :: repulsion energy           0.067699793473 Eh    ::
         :: add. restraining           0.000000000000 Eh    ::
         :: total charge               0.000000000000 e     ::
         :::::::::::::::::::::::::::::::::::::::::::::::::::::

      ----------------------------------------------------------- 
     |                   =====================                   |
     |                        A N C O P T                        |
     |                   =====================                   |
     |               Approximate Normal Coordinate               |
     |                Rational Function Optimizer                |
      ----------------------------------------------------------- 

          ...................................................
          :                      SETUP                      :
          :.................................................:
          :   optimization level            normal          :
          :   max. optcycles                   200          :
          :   ANC micro-cycles                  20          :
          :   degrees of freedom                21          :
          :.................................................:
          :   RF solver                   davidson          :
          :   write xtbopt.log                true          :
          :   linear?                        false          :
          :   energy convergence         0.5000000E-05 Eh   :
          :   grad. convergence          0.1000000E-02 Eh/α :
          :   maximium RF displ.         1.0000000          :
          :   Hlow (freq-cutoff)         0.1000000E-01      :
          :   Hmax (freq-cutoff)         5.0000000          :
          :   S6 in model hess.         20.0000000          :
          ...................................................

generating ANC from model Hessian ...
Using Lindh-Hessian (1995)
 Shifting diagonal of input Hessian by    2.3122367832742494E-002
 Lowest  eigenvalues of input Hessian
    0.010000    0.016679    0.019544    0.021246    0.022652    0.000000
    0.000000    0.000000    0.000000    0.000000    0.000000    0.023128
    0.023887    0.024254    0.030743    0.033370    0.040159    0.046250
 Highest eigenvalues
    0.174393    0.190894    0.228190    0.279509    0.337483    0.379164


........................................................................
.............................. CYCLE    1 ..............................
........................................................................
   1     -6.1604339 -0.616043E+01  0.195E-04    0.21       0.0  T
   2     -6.1604338  0.334794E-07  0.169E-03    0.21      19.8  T
   3     -6.1604338 -0.182576E-07  0.122E-03    0.21      27.3  T
   4     -6.1604338 -0.184959E-09  0.132E-03    0.21      25.3  T
   5     -6.1604339 -0.112926E-07  0.739E-04    0.21      45.1  T
   6     -6.1604339 -0.307832E-08  0.427E-04    0.21      78.1  T
     SCC iter.                  ...        0 min,  0.001 sec
     gradient                   ...        0 min,  0.000 sec
 * total energy  :    -6.0927313 Eh     change        0.4497931E-09 Eh
   gradient norm :     0.2499453 Eh/α   predicted     0.0000000E+00 (-100.00%)
   displ. norm   :     0.7775350 α      lambda       -0.1864410E+00
   maximum displ.:     0.4160691 α      in ANC's #16, #5, #17, ...

........................................................................
.............................. CYCLE    2 ..............................
........................................................................
   1     -6.2419926 -0.624199E+01  0.443E+00    0.08       0.0  T
   2     -4.9231460  0.131885E+01  0.110E+01    0.58       1.0  T
   3     -6.1033250 -0.118018E+01  0.452E+00    0.32       1.0  T
   4     -6.1522925 -0.489675E-01  0.526E+00    0.11       1.0  T
   5     -5.9586220  0.193670E+00  0.754E+00    0.19       1.0  T
   6     -5.9600790 -0.145699E-02  0.750E+00    0.19       1.0  T
   7     -5.9631786 -0.309956E-02  0.744E+00    0.18       1.0  T
   8     -5.9836136 -0.204351E-01  0.751E+00    0.20       1.0  T
   9     -5.9792567  0.435693E-02  0.705E+00    0.22       1.0  T
  10     -6.2737506 -0.294494E+00  0.191E+00    0.03       1.0  T
  11     -6.2683258  0.542478E-02  0.291E+00    0.06       1.0  T
  12     -6.2416146  0.267112E-01  0.338E+00    0.09       1.0  T
  13     -6.2721516 -0.305371E-01  0.197E+00    0.06       1.0  T
  14     -6.2720474  0.104268E-03  0.199E+00    0.06       1.0  T
  15     -6.2795150 -0.746760E-02  0.892E-01    0.05       1.0  T
  16     -6.2736208  0.589415E-02  0.178E+00    0.04       1.0  T
  17     -6.2613239  0.122970E-01  0.250E+00    0.03       1.0  T
  18     -6.2728329 -0.115090E-01  0.162E+00    0.03       1.0  T
  19     -6.2766793 -0.384647E-02  0.122E+00    0.03       1.0  T
  20     -6.2797409 -0.306158E-02  0.692E-01    0.04       1.0  T
  21     -6.2809718 -0.123088E-02  0.307E-01    0.04       1.0  T
  22     -6.2811005 -0.128715E-03  0.213E-01    0.04       1.0  T
  23     -6.2811966 -0.961383E-04  0.151E-01    0.04       1.0  T
  24     -6.2812799 -0.832108E-04  0.793E-02    0.04       1.0  T
  25     -6.2812947 -0.148045E-04  0.652E-02    0.04       1.0  T
  26     -6.2812950 -0.293406E-06  0.633E-02    0.04       1.0  T
  27     -6.2812926  0.235933E-05  0.519E-02    0.04       1.0  T
  28     -6.2812954 -0.282227E-05  0.349E-02    0.04       1.0  T
  29     -6.2812972 -0.180053E-05  0.172E-02    0.04       1.9  T
  30     -6.2812979 -0.639652E-06  0.338E-03    0.04       9.9  T
  31     -6.2812979 -0.144654E-07  0.267E-03    0.04      12.5  T
  32     -6.2812979  0.137781E-07  0.300E-03    0.04      11.1  T
  33     -6.2812979 -0.170020E-07  0.841E-04    0.04      39.6  T
  34     -6.2812979 -0.179535E-08  0.282E-04    0.04     118.3  T
     SCC iter.                  ...        0 min,  0.005 sec
     gradient                   ...        0 min,  0.000 sec
 * total energy  :    -6.2403200 Eh     change       -0.1475888E+00 Eh
   gradient norm :     0.2029064 Eh/α   predicted    -0.1495780E+00 (   1.35%)
   displ. norm   :     0.9153470 α      lambda       -0.1812737E+00
   maximum displ.:     0.6503246 α      in ANC's #16, #13, #2, ...

........................................................................
.............................. CYCLE    3 ..............................
........................................................................
   1     -6.4265818 -0.642658E+01  0.634E+00    0.49       0.0  T
   2     -4.3799587  0.204662E+01  0.120E+01    0.12       1.0  T
   3     -5.4637426 -0.108378E+01  0.740E+00    0.76       1.0  T
   4     -6.4179237 -0.954181E+00  0.470E+00    0.32       1.0  T
   5     -5.6698646  0.748059E+00  0.835E+00    0.08       1.0  T
   6     -6.3081181 -0.638253E+00  0.380E+00    0.42       1.0  T
   7     -6.4408486 -0.132731E+00  0.335E+00    0.47       1.0  T
   8     -6.3927517  0.480969E-01  0.298E+00    0.39       1.0  T
   9     -6.3997266 -0.697492E-02  0.248E+00    0.41       1.0  T
  10     -6.4603716 -0.606450E-01  0.200E+00    0.39       1.0  T
  11     -6.4665112 -0.613958E-02  0.186E+00    0.38       1.0  T
  12     -6.4680025 -0.149132E-02  0.148E+00    0.40       1.0  T
  13     -6.4732153 -0.521282E-02  0.108E+00    0.41       1.0  T
  14     -6.4747683 -0.155301E-02  0.880E-01    0.42       1.0  T
  15     -6.4788958 -0.412749E-02  0.475E-01    0.43       1.0  T
  16     -6.4795369 -0.641045E-03  0.328E-01    0.44       1.0  T
  17     -6.4801289 -0.592000E-03  0.171E-01    0.44       1.0  T
  18     -6.4802865 -0.157641E-03  0.109E-01    0.45       1.0  T
  19     -6.4803496 -0.630634E-04  0.579E-02    0.45       1.0  T
  20     -6.4803521 -0.255202E-05  0.465E-02    0.45       1.0  T
  21     -6.4803524 -0.288880E-06  0.377E-02    0.45       1.0  T
  22     -6.4803543 -0.190767E-05  0.256E-02    0.45       1.3  T
  23     -6.4803564 -0.209081E-05  0.969E-03    0.45       3.4  T
  24     -6.4803567 -0.242067E-06  0.544E-03    0.45       6.1  T
  25     -6.4803567 -0.166854E-08  0.289E-03    0.45      11.6  T
  26     -6.4803567 -0.908297E-08  0.128E-03    0.45      26.1  T
  27     -6.4803567 -0.710410E-08  0.578E-04    0.45      57.7  T
  28     -6.4803567 -0.975825E-09  0.177E-04    0.45     188.1  T
     SCC iter.                  ...        0 min,  0.004 sec
     gradient                   ...        0 min,  0.000 sec
 * total energy  :    -6.3845911 Eh     change       -0.1442711E+00 Eh
   gradient norm :     0.2322096 Eh/α   predicted    -0.1665779E+00 (  15.46%)
   displ. norm   :     0.8018627 α      lambda       -0.1501696E+00
   maximum displ.:     0.4707159 α      in ANC's #13, #15, #21, ...

........................................................................
.............................. CYCLE    4 ..............................
........................................................................
   1     -6.6241302 -0.662413E+01  0.295E+00    1.57       0.0  T
   2     -6.5807328  0.433974E-01  0.269E+00    1.40       1.0  T
   3     -6.4673565  0.113376E+00  0.314E+00    1.70       1.0  T
   4     -6.5002151 -0.328585E-01  0.221E+00    1.29       1.0  T
   5     -6.5693809 -0.691658E-01  0.146E+00    1.57       1.0  T
   6     -6.6242889 -0.549080E-01  0.400E-01    1.53       1.0  T
   7     -6.6275907 -0.330176E-02  0.282E-01    1.48       1.0  T
   8     -6.6287281 -0.113741E-02  0.138E-01    1.49       1.0  T
   9     -6.6289695 -0.241364E-03  0.523E-02    1.50       1.0  T
  10     -6.6289775 -0.806379E-05  0.268E-02    1.50       1.2  T
  11     -6.6289816 -0.412492E-05  0.147E-02    1.50       2.3  T
  12     -6.6289815  0.143854E-06  0.104E-02    1.50       3.2  T
  13     -6.6289825 -0.997117E-06  0.496E-03    1.50       6.7  T
  14     -6.6289826 -0.138155E-06  0.278E-03    1.50      12.0  T
  15     -6.6289827 -0.728092E-07  0.773E-04    1.50      43.1  T
  16     -6.6289827 -0.717776E-08  0.583E-05    1.50     572.2  T
     SCC iter.                  ...        0 min,  0.002 sec
     gradient                   ...        0 min,  0.000 sec
 * total energy  :    -6.4445585 Eh     change       -0.5996737E-01 Eh
   gradient norm :     0.3365302 Eh/α   predicted    -0.1233631E+00 ( 105.72%)
   displ. norm   :     0.6290496 α      lambda       -0.1641258E+00
   maximum displ.:     0.3570061 α      in ANC's #16, #2, #21, ...

........................................................................
.............................. CYCLE    5 ..............................
........................................................................
   1     -6.5985182 -0.659852E+01  0.252E+00    1.51       0.0  T
   2     -6.5631853  0.353328E-01  0.223E+00    1.31       1.0  T
   3     -6.5351079  0.280775E-01  0.251E+00    1.62       1.0  T
   4     -6.5963845 -0.612766E-01  0.573E-01    1.47       1.0  T
   5     -6.5916420  0.474247E-02  0.689E-01    1.41       1.0  T
   6     -6.6034600 -0.118180E-01  0.255E-01    1.45       1.0  T
   7     -6.6035732 -0.113212E-03  0.214E-01    1.45       1.0  T
   8     -6.6038590 -0.285774E-03  0.989E-02    1.46       1.0  T
   9     -6.6040717 -0.212731E-03  0.207E-02    1.46       1.6  T
  10     -6.6040809 -0.921494E-05  0.588E-03    1.46       5.7  T
  11     -6.6040814 -0.474306E-06  0.177E-03    1.46      18.8  T
  12     -6.6040814  0.183248E-07  0.124E-03    1.46      26.8  T
  13     -6.6040814 -0.249173E-07  0.223E-04    1.46     149.3  T
  14     -6.6040814 -0.548933E-09  0.570E-05    1.46     584.4  T
     SCC iter.                  ...        0 min,  0.002 sec
     gradient                   ...        0 min,  0.000 sec
 * total energy  :    -6.4869903 Eh     change       -0.4243178E-01 Eh
   gradient norm :     0.1904759 Eh/α   predicted    -0.1145355E+00 ( 169.93%)
   displ. norm   :     0.7141343 α      lambda       -0.1020465E+00
   maximum displ.:     0.5190554 α      in ANC's #13, #21, #2, ...

........................................................................
.............................. CYCLE    6 ..............................
........................................................................
   1     -6.5847875 -0.658479E+01  0.256E+00    1.14       0.0  T
   2     -6.2649728  0.319815E+00  0.533E+00    1.47       1.0  T
   3     -6.5058177 -0.240845E+00  0.249E+00    0.89       1.0  T
   4     -6.3705037  0.135314E+00  0.313E+00    1.46       1.0  T
   5     -6.5177195 -0.147216E+00  0.190E+00    1.44       1.0  T
   6     -6.5864218 -0.687023E-01  0.984E-01    1.37       1.0  T
   7     -6.6057416 -0.193198E-01  0.431E-01    1.26       1.0  T
   8     -6.6067420 -0.100044E-02  0.347E-01    1.24       1.0  T
   9     -6.6067396  0.245252E-05  0.779E-02    1.26       1.0  T
  10     -6.6067264  0.132052E-04  0.886E-02    1.26       1.0  T
  11     -6.6067598 -0.334255E-04  0.228E-02    1.26       1.5  T
  12     -6.6067629 -0.306969E-05  0.908E-03    1.26       3.7  T
  13     -6.6067627  0.138247E-06  0.563E-03    1.26       5.9  T
  14     -6.6067629 -0.176054E-06  0.235E-03    1.25      14.2  T
  15     -6.6067630 -0.119539E-06  0.623E-04    1.26      53.5  T
  16     -6.6067630 -0.105507E-07  0.197E-04    1.26     169.0  T
     SCC iter.                  ...        0 min,  0.002 sec
     gradient                   ...        0 min,  0.000 sec
 * total energy  :    -6.5098300 Eh     change       -0.2283972E-01 Eh
   gradient norm :     0.1510523 Eh/α   predicted    -0.7704448E-01 ( 237.33%)
   displ. norm   :     0.6071968 α      lambda       -0.7022295E-01
   maximum displ.:     0.3215163 α      in ANC's #2, #16, #21, ...

........................................................................
.............................. CYCLE    7 ..............................
........................................................................
   1     -6.6988252 -0.669883E+01  0.200E+00    1.59       0.0  T
   2     -6.6567843  0.420409E-01  0.215E+00    1.24       1.0  T
   3     -6.6426702  0.141141E-01  0.180E+00    1.70       1.0  T
   4     -6.6750641 -0.323939E-01  0.128E+00    1.66       1.0  T
   5     -6.6978314 -0.227673E-01  0.348E-01    1.57       1.0  T
   6     -6.6921372  0.569419E-02  0.683E-01    1.37       1.0  T
   7     -6.6993409 -0.720368E-02  0.385E-01    1.46       1.0  T
   8     -6.7007902 -0.144928E-02  0.104E-01    1.48       1.0  T
   9     -6.7008539 -0.637297E-04  0.494E-02    1.51       1.0  T
  10     -6.7008975 -0.435647E-04  0.135E-02    1.50       2.5  T
  11     -6.7008985 -0.106460E-05  0.549E-03    1.50       6.1  T
  12     -6.7008984  0.103033E-06  0.285E-03    1.50      11.7  T
  13     -6.7008986 -0.131514E-06  0.444E-04    1.50      75.1  T
  14     -6.7008986 -0.345932E-08  0.107E-04    1.50     312.4  T
     SCC iter.                  ...        0 min,  0.002 sec
     gradient                   ...        0 min,  0.000 sec
 * total energy  :    -6.5523053 Eh     change       -0.4247532E-01 Eh
   gradient norm :     0.1047617 Eh/α   predicted    -0.4805665E-01 (  13.14%)
   displ. norm   :     0.5845222 α      lambda       -0.3828912E-01
   maximum displ.:     0.2613746 α      in ANC's #4, #8, #1, ...

........................................................................
.............................. CYCLE    8 ..............................
........................................................................
   1     -6.7134489 -0.671345E+01  0.140E+00    1.87       0.0  T
   2     -6.7095295  0.391940E-02  0.108E+00    1.93       1.0  T
   3     -6.6844720  0.250575E-01  0.126E+00    1.73       1.0  T
   4     -6.6542956  0.301764E-01  0.174E+00    1.87       1.0  T
   5     -6.7120444 -0.577488E-01  0.316E-01    1.90       1.0  T
   6     -6.7140860 -0.204155E-02  0.143E-01    1.90       1.0  T
   7     -6.7144475 -0.361514E-03  0.601E-02    1.89       1.0  T
   8     -6.7144379  0.955885E-05  0.349E-02    1.90       1.0  T
   9     -6.7144597 -0.217760E-04  0.950E-03    1.89       3.5  T
  10     -6.7144605 -0.788445E-06  0.296E-03    1.89      11.3  T
  11     -6.7144605 -0.398932E-07  0.155E-03    1.89      21.5  T
  12     -6.7144605 -0.132750E-07  0.626E-04    1.89      53.3  T
  13     -6.7144605 -0.427913E-08  0.116E-04    1.89     286.4  T
     SCC iter.                  ...        0 min,  0.002 sec
     gradient                   ...        0 min,  0.000 sec
 * total energy  :    -6.5745391 Eh     change       -0.2223378E-01 Eh
   gradient norm :     0.0586429 Eh/α   predicted    -0.2568561E-01 (  15.53%)
   displ. norm   :     0.6008704 α      lambda       -0.2106275E-01
   maximum displ.:     0.2812454 α      in ANC's #4, #3, #21, ...

........................................................................
.............................. CYCLE    9 ..............................
........................................................................
   1     -6.7271681 -0.672717E+01  0.233E+00    1.91       0.0  T
   2     -6.6915134  0.356546E-01  0.216E+00    1.90       1.0  T
   3     -6.6935370 -0.202354E-02  0.229E+00    1.94       1.0  T
   4     -6.7005779 -0.704090E-02  0.140E+00    1.71       1.0  T
   5     -6.7199841 -0.194062E-01  0.724E-01    1.97       1.0  T
   6     -6.7328050 -0.128210E-01  0.289E-01    1.90       1.0  T
   7     -6.7339941 -0.118908E-02  0.107E-01    1.94       1.0  T
   8     -6.7339145  0.796136E-04  0.730E-02    1.93       1.0  T
   9     -6.7339888 -0.742788E-04  0.450E-02    1.95       1.0  T
  10     -6.7340285 -0.396879E-04  0.638E-03    1.94       5.2  T
  11     -6.7340284  0.860369E-07  0.346E-03    1.94       9.6  T
  12     -6.7340287 -0.263262E-06  0.106E-03    1.94      31.3  T
  13     -6.7340287 -0.818966E-08  0.230E-04    1.94     144.8  T
  14     -6.7340287 -0.482330E-09  0.351E-05    1.94     950.0  T
     SCC iter.                  ...        0 min,  0.002 sec
     gradient                   ...        0 min,  0.000 sec
 * total energy  :    -6.5814809 Eh     change       -0.6941817E-02 Eh
   gradient norm :     0.0734547 Eh/α   predicted    -0.1433368E-01 ( 106.48%)
   displ. norm   :     0.5332562 α      lambda       -0.1937153E-01
   maximum displ.:     0.2660899 α      in ANC's #4, #12, #21, ...

........................................................................
.............................. CYCLE   10 ..............................
........................................................................
   1     -6.7208265 -0.672083E+01  0.177E+00    1.63       0.0  T
   2     -6.7041656  0.166609E-01  0.128E+00    1.55       1.0  T
   3     -6.2591534  0.445012E+00  0.402E+00    0.95       1.0  T
   4     -6.6920845 -0.432931E+00  0.104E+00    1.54       1.0  T
   5     -6.7198574 -0.277728E-01  0.362E-01    1.58       1.0  T
   6     -6.7214401 -0.158274E-02  0.243E-01    1.60       1.0  T
   7     -6.7215428 -0.102754E-03  0.221E-01    1.60       1.0  T
   8     -6.7219050 -0.362162E-03  0.160E-01    1.61       1.0  T
   9     -6.7219417 -0.367316E-04  0.587E-02    1.61       1.0  T
  10     -6.7219587 -0.169155E-04  0.383E-02    1.61       1.0  T
  11     -6.7219694 -0.107690E-04  0.110E-02    1.61       3.0  T
  12     -6.7219711 -0.168242E-05  0.701E-03    1.61       4.8  T
  13     -6.7219720 -0.857669E-06  0.236E-03    1.61      14.1  T
  14     -6.7219721 -0.106134E-06  0.255E-04    1.61     130.6  T
  15     -6.7219721 -0.561823E-09  0.148E-04    1.61     225.4  T
     SCC iter.                  ...        0 min,  0.002 sec
     gradient                   ...        0 min,  0.000 sec
 * total energy  :    -6.5871727 Eh     change       -0.5691836E-02 Eh
   gradient norm :     0.0588892 Eh/α   predicted    -0.1244002E-01 ( 118.56%)
   displ. norm   :     0.4281386 α      lambda       -0.1254439E-01
   maximum displ.:     0.1969925 α      in ANC's #5, #10, #9, ...

........................................................................
.............................. CYCLE   11 ..............................
........................................................................
   1     -6.7256473 -0.672565E+01  0.102E+00    1.89       0.0  T
   2     -6.7222997  0.334760E-02  0.683E-01    1.84       1.0  T
   3     -6.7043565  0.179433E-01  0.125E+00    1.81       1.0  T
   4     -6.7087724 -0.441593E-02  0.857E-01    1.72       1.0  T
   5     -6.7254248 -0.166524E-01  0.251E-01    1.90       1.0  T
   6     -6.7260538 -0.628967E-03  0.110E-01    1.90       1.0  T
   7     -6.7263020 -0.248166E-03  0.544E-02    1.89       1.0  T
   8     -6.7263261 -0.241344E-04  0.295E-02    1.89       1.1  T
   9     -6.7263414 -0.153301E-04  0.526E-03    1.89       6.3  T
  10     -6.7263415 -0.124906E-06  0.112E-03    1.89      29.7  T
  11     -6.7263416 -0.938849E-08  0.405E-04    1.89      82.3  T
  12     -6.7263416 -0.318473E-08  0.115E-04    1.89     290.1  T
     SCC iter.                  ...        0 min,  0.001 sec
     gradient                   ...        0 min,  0.000 sec
 * total energy  :    -6.5880102 Eh     change       -0.8374961E-03 Eh
   gradient norm :     0.0764539 Eh/α   predicted    -0.7421903E-02 ( 786.20%)
   displ. norm   :     0.4099337 α      lambda       -0.1777672E-01
   maximum displ.:     0.2684343 α      in ANC's #2, #1, #8, ...

........................................................................
.............................. CYCLE   12 ..............................
........................................................................
   1     -6.7174655 -0.671747E+01  0.146E+00    1.79       0.0  T
   2     -6.7163994  0.106610E-02  0.959E-01    1.82       1.0  T
   3     -6.6728113  0.435881E-01  0.182E+00    1.67       1.0  T
   4     -6.7151329 -0.423216E-01  0.375E-01    1.81       1.0  T
   5     -6.7166861 -0.155329E-02  0.232E-01    1.79       1.0  T
   6     -6.7175594 -0.873206E-03  0.163E-01    1.81       1.0  T
   7     -6.7174971  0.622543E-04  0.117E-01    1.80       1.0  T
   8     -6.7177464 -0.249313E-03  0.207E-02    1.80       1.6  T
   9     -6.7177484 -0.203729E-05  0.471E-03    1.80       7.1  T
  10     -6.7177484  0.135491E-07  0.339E-03    1.80       9.8  T
  11     -6.7177487 -0.224978E-06  0.606E-04    1.80      55.0  T
  12     -6.7177487 -0.597554E-08  0.961E-05    1.80     346.9  T
     SCC iter.                  ...        0 min,  0.001 sec
     gradient                   ...        0 min,  0.000 sec
 * total energy  :    -6.5866315 Eh     change        0.1378766E-02 Eh
   gradient norm :     0.0804678 Eh/α   predicted    -0.1038201E-01 (-852.99%)
   displ. norm   :     0.4383120 α      lambda       -0.2265820E-01
   maximum displ.:     0.2197485 α      in ANC's #5, #2, #11, ...

........................................................................
.............................. CYCLE   13 ..............................
........................................................................
   1     -6.7829239 -0.678292E+01  0.107E+00    2.06       0.0  T
   2     -6.7818859  0.103793E-02  0.758E-01    2.07       1.0  T
   3     -6.7479465  0.339395E-01  0.149E+00    1.95       1.0  T
   4     -6.7740585 -0.261121E-01  0.632E-01    2.02       1.0  T
   5     -6.7830057 -0.894714E-02  0.138E-01    2.07       1.0  T
   6     -6.7830243 -0.185944E-04  0.953E-02    2.07       1.0  T
   7     -6.7830056  0.187097E-04  0.834E-02    2.07       1.0  T
   8     -6.7831322 -0.126656E-03  0.200E-02    2.07       1.7  T
   9     -6.7831356 -0.334266E-05  0.740E-03    2.07       4.5  T
  10     -6.7831362 -0.647919E-06  0.402E-03    2.07       8.3  T
  11     -6.7831365 -0.336048E-06  0.378E-04    2.07      88.2  T
  12     -6.7831365  0.135895E-08  0.302E-04    2.07     110.2  T
     SCC iter.                  ...        0 min,  0.002 sec
     gradient                   ...        0 min,  0.000 sec
 * total energy  :    -6.5826625 Eh     change        0.3968977E-02 Eh
   gradient norm :     0.1415411 Eh/α   predicted    -0.1350562E-01 (-440.28%)
   displ. norm   :     0.3607737 α      lambda       -0.3841605E-01
   maximum displ.:     0.1707962 α      in ANC's #5, #11, #8, ...

........................................................................
.............................. CYCLE   14 ..............................
........................................................................
   1     -6.7192955 -0.671930E+01  0.124E+00    1.61       0.0  T
   2     -6.6931970  0.260985E-01  0.152E+00    1.52       1.0  T
   3     -6.6773362  0.158607E-01  0.166E+00    1.60       1.0  T
   4     -6.6971896 -0.198533E-01  0.105E+00    1.54       1.0  T
   5     -6.7203832 -0.231936E-01  0.377E-01    1.58       1.0  T
   6     -6.7209104 -0.527285E-03  0.237E-01    1.56       1.0  T
   7     -6.7216240 -0.713589E-03  0.148E-01    1.58       1.0  T
   8     -6.7217298 -0.105816E-03  0.459E-02    1.58       1.0  T
   9     -6.7217614 -0.315449E-04  0.817E-03    1.58       4.1  T
  10     -6.7217612  0.180327E-06  0.417E-03    1.58       8.0  T
  11     -6.7217614 -0.188891E-06  0.126E-03    1.58      26.4  T
  12     -6.7217614 -0.178335E-07  0.595E-04    1.58      56.0  T
  13     -6.7217614 -0.418083E-09  0.414E-04    1.58      80.4  T
     SCC iter.                  ...        0 min,  0.002 sec
     gradient                   ...        0 min,  0.000 sec
 * total energy  :    -6.5938165 Eh     change       -0.1115403E-01 Eh
   gradient norm :     0.0485138 Eh/α   predicted    -0.2170809E-01 (  94.62%)
   displ. norm   :     0.3492966 α      lambda       -0.8945751E-02
   maximum displ.:     0.1890955 α      in ANC's #2, #8, #1, ...

........................................................................
.............................. CYCLE   15 ..............................
........................................................................
   1     -6.7320760 -0.673208E+01  0.142E+00    1.43       0.0  T
   2     -6.7270353  0.504071E-02  0.105E+00    1.48       1.0  T
   3     -6.6976474  0.293879E-01  0.185E+00    1.44       1.0  T
   4     -6.7025986 -0.495123E-02  0.142E+00    1.36       1.0  T
   5     -6.7320900 -0.294913E-01  0.256E-01    1.46       1.0  T
   6     -6.7326928 -0.602863E-03  0.187E-01    1.45       1.0  T
   7     -6.7325884  0.104464E-03  0.188E-01    1.46       1.0  T
   8     -6.7331770 -0.588624E-03  0.320E-02    1.45       1.0  T
   9     -6.7331834 -0.645705E-05  0.177E-02    1.45       1.9  T
  10     -6.7331867 -0.329782E-05  0.433E-03    1.45       7.7  T
  11     -6.7331869 -0.126875E-06  0.472E-04    1.45      70.7  T
  12     -6.7331869 -0.129818E-08  0.146E-04    1.45     228.3  T
     SCC iter.                  ...        0 min,  0.002 sec
     gradient                   ...        0 min,  0.000 sec
 * total energy  :    -6.5963530 Eh     change       -0.2536519E-02 Eh
   gradient norm :     0.0537867 Eh/α   predicted    -0.5018603E-02 (  97.85%)
   displ. norm   :     0.2755191 α      lambda       -0.7502129E-02
   maximum displ.:     0.1295635 α      in ANC's #3, #12, #1, ...

........................................................................
.............................. CYCLE   16 ..............................
........................................................................
   1     -6.7464585 -0.674646E+01  0.946E-01    1.80       0.0  T
   2     -6.7279172  0.185412E-01  0.124E+00    1.83       1.0  T
   3     -6.7342435 -0.632629E-02  0.112E+00    1.77       1.0  T
   4     -6.7318212  0.242235E-02  0.852E-01    1.85       1.0  T
   5     -6.7476637 -0.158425E-01  0.164E-01    1.79       1.0  T
   6     -6.7483790 -0.715317E-03  0.474E-02    1.80       1.0  T
   7     -6.7483830 -0.397135E-05  0.425E-02    1.81       1.0  T
   8     -6.7483920 -0.901907E-05  0.198E-02    1.80       1.7  T
   9     -6.7483941 -0.215596E-05  0.157E-02    1.80       2.1  T
  10     -6.7483975 -0.335774E-05  0.195E-03    1.80      17.1  T
  11     -6.7483975 -0.134486E-07  0.749E-04    1.80      44.5  T
  12     -6.7483975 -0.145776E-08  0.197E-04    1.80     169.3  T
     SCC iter.                  ...        0 min,  0.002 sec
     gradient                   ...        0 min,  0.000 sec
 * total energy  :    -6.5961290 Eh     change        0.2240395E-03 Eh
   gradient norm :     0.0660236 Eh/α   predicted    -0.4035809E-02 (*******%)
   displ. norm   :     0.3545066 α      lambda       -0.1125488E-01
   maximum displ.:     0.2626001 α      in ANC's #6, #7, #9, ...

........................................................................
.............................. CYCLE   17 ..............................
........................................................................
   1     -6.7418322 -0.674183E+01  0.176E+00    1.52       0.0  T
   2     -6.7191934  0.226388E-01  0.151E+00    1.40       1.0  T
   3     -6.6163212  0.102872E+00  0.273E+00    1.56       1.0  T
   4     -6.6971512 -0.808300E-01  0.142E+00    1.41       1.0  T
   5     -6.7375636 -0.404124E-01  0.625E-01    1.44       1.0  T
   6     -6.7433211 -0.575747E-02  0.211E-01    1.46       1.0  T
   7     -6.7438858 -0.564648E-03  0.148E-01    1.47       1.0  T
   8     -6.7438981 -0.123691E-04  0.631E-02    1.47       1.0  T
   9     -6.7439278 -0.296431E-04  0.286E-02    1.48       1.2  T
  10     -6.7439297 -0.190499E-05  0.740E-03    1.47       4.5  T
  11     -6.7439308 -0.114561E-05  0.171E-03    1.47      19.5  T
  12     -6.7439308 -0.411713E-08  0.870E-04    1.47      38.3  T
  13     -6.7439308 -0.268837E-08  0.304E-04    1.47     109.6  T
     SCC iter.                  ...        0 min,  0.002 sec
     gradient                   ...        0 min,  0.000 sec
 * total energy  :    -6.6004457 Eh     change       -0.4316687E-02 Eh
   gradient norm :     0.0345594 Eh/α   predicted    -0.6334675E-02 (  46.75%)
   displ. norm   :     0.2623643 α      lambda       -0.3906813E-02
   maximum displ.:     0.1294821 α      in ANC's #6, #2, #8, ...

........................................................................
.............................. CYCLE   18 ..............................
........................................................................
   1     -6.7349077 -0.673491E+01  0.906E-01    1.49       0.0  T
   2     -6.7296951  0.521267E-02  0.757E-01    1.53       1.0  T
   3     -6.7238122  0.588288E-02  0.117E+00    1.50       1.0  T
   4     -6.7260441 -0.223195E-02  0.787E-01    1.43       1.0  T
   5     -6.7342992 -0.825504E-02  0.262E-01    1.51       1.0  T
   6     -6.7358398 -0.154063E-02  0.748E-02    1.50       1.0  T
   7     -6.7357676  0.722203E-04  0.849E-02    1.50       1.0  T
   8     -6.7358743 -0.106731E-03  0.228E-02    1.50       1.5  T
   9     -6.7358789 -0.459222E-05  0.919E-03    1.50       3.6  T
  10     -6.7358800 -0.106636E-05  0.147E-03    1.50      22.7  T
  11     -6.7358800 -0.115728E-07  0.337E-04    1.50      98.8  T
  12     -6.7358800 -0.645406E-09  0.540E-05    1.50     617.3  T
     SCC iter.                  ...        0 min,  0.002 sec
     gradient                   ...        0 min,  0.000 sec
 * total energy  :    -6.6023544 Eh     change       -0.1908723E-02 Eh
   gradient norm :     0.0282627 Eh/α   predicted    -0.2087869E-02 (   9.39%)
   displ. norm   :     0.3135148 α      lambda       -0.3750950E-02
   maximum displ.:     0.1279185 α      in ANC's #6, #2, #7, ...

........................................................................
.............................. CYCLE   19 ..............................
........................................................................
   1     -6.7472003 -0.674720E+01  0.130E+00    1.36       0.0  T
   2     -6.7393495  0.785080E-02  0.101E+00    1.32       1.0  T
   3     -6.7109041  0.284454E-01  0.197E+00    1.43       1.0  T
   4     -6.7207093 -0.980520E-02  0.107E+00    1.29       1.0  T
   5     -6.7479072 -0.271979E-01  0.186E-01    1.36       1.0  T
   6     -6.7479923 -0.850573E-04  0.139E-01    1.35       1.0  T
   7     -6.7479502  0.421198E-04  0.137E-01    1.36       1.0  T
   8     -6.7480922 -0.142083E-03  0.456E-02    1.35       1.0  T
   9     -6.7481288 -0.365942E-04  0.958E-03    1.35       3.5  T
  10     -6.7481293 -0.480673E-06  0.277E-03    1.35      12.0  T
  11     -6.7481293 -0.122171E-07  0.161E-03    1.35      20.8  T
  12     -6.7481293 -0.139717E-07  0.370E-04    1.35      90.2  T
  13     -6.7481293 -0.187957E-08  0.698E-05    1.35     477.5  T
     SCC iter.                  ...        0 min,  0.002 sec
     gradient                   ...        0 min,  0.000 sec
 * total energy  :    -6.6041475 Eh     change       -0.1793054E-02 Eh
   gradient norm :     0.0205206 Eh/α   predicted    -0.2059819E-02 (  14.88%)
   displ. norm   :     0.4904594 α      lambda       -0.4217631E-02
   maximum displ.:     0.3461460 α      in ANC's #6, #1, #13, ...

........................................................................
.............................. CYCLE   20 ..............................
........................................................................
   1     -6.7434598 -0.674346E+01  0.166E+00    1.27       0.0  T
   2     -6.7403403  0.311955E-02  0.108E+00    1.20       1.0  T
   3     -6.6850042  0.553361E-01  0.196E+00    1.42       1.0  T
   4     -6.7037539 -0.187497E-01  0.145E+00    1.18       1.0  T
   5     -6.7402526 -0.364987E-01  0.412E-01    1.22       1.0  T
   6     -6.7438655 -0.361293E-02  0.191E-01    1.23       1.0  T
   7     -6.7440020 -0.136457E-03  0.135E-01    1.25       1.0  T
   8     -6.7440499 -0.479188E-04  0.843E-02    1.24       1.0  T
   9     -6.7441896 -0.139745E-03  0.909E-03    1.24       3.7  T
  10     -6.7441912 -0.159563E-05  0.257E-03    1.24      13.0  T
  11     -6.7441912 -0.254960E-08  0.137E-03    1.24      24.4  T
  12     -6.7441913 -0.237379E-07  0.571E-04    1.24      58.4  T
  13     -6.7441913 -0.459888E-08  0.993E-05    1.24     335.6  T
     SCC iter.                  ...        0 min,  0.002 sec
     gradient                   ...        0 min,  0.000 sec
 * total energy  :    -6.6065125 Eh     change       -0.2365011E-02 Eh
   gradient norm :     0.0202730 Eh/α   predicted    -0.2616096E-02 (  10.62%)
   displ. norm   :     0.2825939 α      lambda       -0.1960322E-02
   maximum displ.:     0.1971583 α      in ANC's #6, #13, #8, ...
 * RMSD in coord.:     1.8610496 α      energy gain  -0.5137812E+00 Eh

generating ANC from model Hessian ...
Using Lindh-Hessian (1995)
 Shifting diagonal of input Hessian by    1.0461940744758313E-002
 Lowest  eigenvalues of input Hessian
    0.010000    0.010188    0.010264    0.010318    0.010460    0.000000
    0.000000    0.000000    0.000000    0.000000    0.000000    0.010519
    0.010785    0.011342    0.011659    0.012533    0.014272    0.022666
 Highest eigenvalues
    0.473104    0.569806    0.615847    0.654446    0.754032    1.276711


........................................................................
.............................. CYCLE   21 ..............................
........................................................................
   1     -6.7513757 -0.675138E+01  0.118E+00    1.44       0.0  T
   2     -6.7427650  0.861072E-02  0.106E+00    1.52       1.0  T
   3     -6.7190336  0.237313E-01  0.176E+00    1.39       1.0  T
   4     -6.7393362 -0.203026E-01  0.719E-01    1.47       1.0  T
   5     -6.7502891 -0.109529E-01  0.297E-01    1.43       1.0  T
   6     -6.7519653 -0.167618E-02  0.146E-01    1.46       1.0  T
   7     -6.7521752 -0.209901E-03  0.777E-02    1.46       1.0  T
   8     -6.7521660  0.917256E-05  0.321E-02    1.46       1.0  T
   9     -6.7521865 -0.204629E-04  0.118E-02    1.46       2.8  T
  10     -6.7521873 -0.829879E-06  0.235E-03    1.46      14.2  T
  11     -6.7521874 -0.216701E-07  0.867E-04    1.46      38.4  T
  12     -6.7521874 -0.827750E-08  0.149E-04    1.46     224.1  T
     SCC iter.                  ...        0 min,  0.002 sec
     gradient                   ...        0 min,  0.000 sec
 * total energy  :    -6.6066502 Eh     change       -0.1377529E-03 Eh
   gradient norm :     0.0275155 Eh/α   predicted     0.0000000E+00 (-100.00%)
   displ. norm   :     0.2684297 α      lambda       -0.2317567E-02
   maximum displ.:     0.2030132 α      in ANC's #10, #11, #9, ...

........................................................................
.............................. CYCLE   22 ..............................
........................................................................
   1     -6.7500715 -0.675007E+01  0.660E-01    1.43       0.0  T
   2     -6.7500719 -0.409325E-06  0.426E-01    1.43       1.0  T
   3     -6.7486806  0.139132E-02  0.275E-01    1.45       1.0  T
   4     -6.7500846 -0.140404E-02  0.464E-02    1.43       1.0  T
   5     -6.7500316  0.529861E-04  0.626E-02    1.43       1.0  T
   6     -6.7500845 -0.528892E-04  0.109E-02    1.43       3.1  T
   7     -6.7500844  0.134235E-06  0.939E-03    1.43       3.5  T
   8     -6.7500858 -0.140873E-05  0.204E-03    1.43      16.4  T
   9     -6.7500858 -0.193791E-07  0.837E-04    1.43      39.8  T
  10     -6.7500858 -0.377721E-08  0.229E-04    1.43     145.4  T
     SCC iter.                  ...        0 min,  0.002 sec
     gradient                   ...        0 min,  0.001 sec
 * total energy  :    -6.6081171 Eh     change       -0.1466882E-02 Eh
   gradient norm :     0.0084507 Eh/α   predicted    -0.1242281E-02 ( -15.31%)
   displ. norm   :     0.3487747 α      lambda       -0.1512387E-02
   maximum displ.:     0.2617156 α      in ANC's #10, #12, #5, ...

........................................................................
.............................. CYCLE   23 ..............................
........................................................................
   1     -6.7488907 -0.674889E+01  0.944E-01    1.41       0.0  T
   2     -6.7481687  0.721999E-03  0.642E-01    1.40       1.0  T
   3     -6.7233046  0.248641E-01  0.148E+00    1.47       1.0  T
   4     -6.7453933 -0.220887E-01  0.383E-01    1.38       1.0  T
   5     -6.7489743 -0.358101E-02  0.640E-02    1.41       1.0  T
   6     -6.7489284  0.459417E-04  0.689E-02    1.41       1.0  T
   7     -6.7489555 -0.271651E-04  0.537E-02    1.41       1.0  T
   8     -6.7489842 -0.286668E-04  0.608E-03    1.41       5.5  T
   9     -6.7489838  0.439413E-06  0.679E-03    1.41       4.9  T
  10     -6.7489845 -0.722176E-06  0.758E-04    1.41      44.0  T
  11     -6.7489845 -0.230716E-09  0.292E-04    1.41     114.1  T
     SCC iter.                  ...        0 min,  0.002 sec
     gradient                   ...        0 min,  0.000 sec
 * total energy  :    -6.6085868 Eh     change       -0.4696670E-03 Eh
   gradient norm :     0.0138903 Eh/α   predicted    -0.8481808E-03 (  80.59%)
   displ. norm   :     0.1800454 α      lambda       -0.7526814E-03
   maximum displ.:     0.1065564 α      in ANC's #10, #5, #8, ...

........................................................................
.............................. CYCLE   24 ..............................
........................................................................
   1     -6.7518793 -0.675188E+01  0.616E-01    1.38       0.0  T
   2     -6.7516267  0.252593E-03  0.390E-01    1.37       1.0  T
   3     -6.7403801  0.112466E-01  0.989E-01    1.43       1.0  T
   4     -6.7507451 -0.103651E-01  0.211E-01    1.36       1.0  T
   5     -6.7518978 -0.115263E-02  0.429E-02    1.38       1.0  T
   6     -6.7518970  0.743301E-06  0.399E-02    1.37       1.0  T
   7     -6.7518954  0.161086E-05  0.331E-02    1.38       1.0  T
   8     -6.7519102 -0.147940E-04  0.232E-03    1.38      14.4  T
   9     -6.7519102  0.759018E-08  0.162E-03    1.38      20.6  T
  10     -6.7519102 -0.227350E-07  0.301E-04    1.38     110.6  T
  11     -6.7519102 -0.552866E-09  0.557E-05    1.38     598.8  T
     SCC iter.                  ...        0 min,  0.002 sec
     gradient                   ...        0 min,  0.000 sec
 * total energy  :    -6.6090749 Eh     change       -0.4880660E-03 Eh
   gradient norm :     0.0065914 Eh/α   predicted    -0.3885413E-03 ( -20.39%)
   displ. norm   :     0.2501613 α      lambda       -0.4114450E-03
   maximum displ.:     0.1430447 α      in ANC's #10, #5, #6, ...

........................................................................
.............................. CYCLE   25 ..............................
........................................................................
   1     -6.7501187 -0.675012E+01  0.902E-01    1.33       0.0  T
   2     -6.7497227  0.396042E-03  0.556E-01    1.32       1.0  T
   3     -6.7268691  0.228536E-01  0.137E+00    1.42       1.0  T
   4     -6.7480105 -0.211414E-01  0.289E-01    1.32       1.0  T
   5     -6.7501276 -0.211707E-02  0.648E-02    1.33       1.0  T
   6     -6.7501390 -0.113944E-04  0.622E-02    1.32       1.0  T
   7     -6.7501258  0.131820E-04  0.589E-02    1.33       1.0  T
   8     -6.7501710 -0.451763E-04  0.364E-03    1.33       9.2  T
   9     -6.7501710 -0.378580E-07  0.226E-03    1.33      14.8  T
  10     -6.7501710 -0.203685E-07  0.401E-04    1.33      83.1  T
  11     -6.7501710 -0.422238E-09  0.140E-04    1.33     238.3  T
     SCC iter.                  ...        0 min,  0.001 sec
     gradient                   ...        0 min,  0.000 sec
 * total energy  :    -6.6092958 Eh     change       -0.2209718E-03 Eh
   gradient norm :     0.0071320 Eh/α   predicted    -0.2185965E-03 (  -1.07%)
   displ. norm   :     0.2152885 α      lambda       -0.2768213E-03
   maximum displ.:     0.1239679 α      in ANC's #10, #5, #8, ...

........................................................................
.............................. CYCLE   26 ..............................
........................................................................
   1     -6.7520538 -0.675205E+01  0.572E-01    1.31       0.0  T
   2     -6.7519509  0.102910E-03  0.350E-01    1.30       1.0  T
   3     -6.7439663  0.798459E-02  0.820E-01    1.36       1.0  T
   4     -6.7516909 -0.772459E-02  0.123E-01    1.31       1.0  T
   5     -6.7520359 -0.345007E-03  0.521E-02    1.31       1.0  T
   6     -6.7520478 -0.119347E-04  0.486E-02    1.31       1.0  T
   7     -6.7520550 -0.724348E-05  0.321E-02    1.31       1.0  T
   8     -6.7520682 -0.131386E-04  0.303E-03    1.31      11.0  T
   9     -6.7520682 -0.207415E-07  0.113E-03    1.31      29.5  T
  10     -6.7520682 -0.107265E-07  0.225E-04    1.31     148.2  T
  11     -6.7520682 -0.824532E-10  0.121E-04    1.31     275.7  T
     SCC iter.                  ...        0 min,  0.002 sec
     gradient                   ...        0 min,  0.001 sec
 * total energy  :    -6.6094926 Eh     change       -0.1968171E-03 Eh
   gradient norm :     0.0056881 Eh/α   predicted    -0.1448244E-03 ( -26.42%)
   displ. norm   :     0.3464138 α      lambda       -0.3396079E-03
   maximum displ.:     0.1762720 α      in ANC's #10, #5, #9, ...

........................................................................
.............................. CYCLE   27 ..............................
........................................................................
   1     -6.7523649 -0.675236E+01  0.639E-01    1.30       0.0  T
   2     -6.7523450  0.198454E-04  0.413E-01    1.30       1.0  T
   3     -6.7504585  0.188649E-02  0.387E-01    1.32       1.0  T
   4     -6.7523466 -0.188806E-02  0.780E-02    1.30       1.0  T
   5     -6.7523758 -0.291610E-04  0.335E-02    1.30       1.0  T
   6     -6.7523474  0.283421E-04  0.472E-02    1.30       1.0  T
   7     -6.7523776 -0.302030E-04  0.139E-02    1.30       2.4  T
   8     -6.7523799 -0.226357E-05  0.273E-03    1.30      12.2  T
   9     -6.7523799 -0.417541E-07  0.119E-03    1.30      28.0  T
  10     -6.7523799 -0.175902E-08  0.350E-04    1.30      95.3  T
  11     -6.7523799 -0.595073E-09  0.768E-05    1.30     434.1  T
     SCC iter.                  ...        0 min,  0.002 sec
     gradient                   ...        0 min,  0.001 sec
 * total energy  :    -6.6097502 Eh     change       -0.2575422E-03 Eh
   gradient norm :     0.0044478 Eh/α   predicted    -0.1901803E-03 ( -26.16%)
   displ. norm   :     0.4827417 α      lambda       -0.3369863E-03
   maximum displ.:     0.2632563 α      in ANC's #5, #10, #4, ...

........................................................................
.............................. CYCLE   28 ..............................
........................................................................
   1     -6.7486021 -0.674860E+01  0.930E-01    1.28       0.0  T
   2     -6.7485080  0.940343E-04  0.604E-01    1.27       1.0  T
   3     -6.7393035  0.920449E-02  0.739E-01    1.33       1.0  T
   4     -6.7479112 -0.860770E-02  0.187E-01    1.26       1.0  T
   5     -6.7485156 -0.604344E-03  0.123E-01    1.28       1.0  T
   6     -6.7485595 -0.439674E-04  0.695E-02    1.27       1.0  T
   7     -6.7486368 -0.772923E-04  0.311E-02    1.27       1.1  T
   8     -6.7486430 -0.614878E-05  0.482E-03    1.27       6.9  T
   9     -6.7486432 -0.192662E-06  0.178E-03    1.27      18.7  T
  10     -6.7486432 -0.262489E-07  0.457E-04    1.27      72.9  T
  11     -6.7486432 -0.228946E-09  0.182E-04    1.27     182.7  T
     SCC iter.                  ...        0 min,  0.001 sec
     gradient                   ...        0 min,  0.000 sec
 * total energy  :    -6.6099651 Eh     change       -0.2148743E-03 Eh
   gradient norm :     0.0074125 Eh/α   predicted    -0.2077564E-03 (  -3.31%)
   displ. norm   :     0.2953573 α      lambda       -0.2488324E-03
   maximum displ.:     0.1565170 α      in ANC's #4, #8, #10, ...

........................................................................
.............................. CYCLE   29 ..............................
........................................................................
   1     -6.7508565 -0.675086E+01  0.402E-01    1.28       0.0  T
   2     -6.7501753  0.681146E-03  0.441E-01    1.29       1.0  T
   3     -6.7505530 -0.377705E-03  0.259E-01    1.28       1.0  T
   4     -6.7474325  0.312054E-02  0.376E-01    1.31       1.0  T
   5     -6.7509249 -0.349242E-02  0.448E-02    1.28       1.0  T
   6     -6.7509384 -0.134912E-04  0.276E-02    1.29       1.2  T
   7     -6.7509435 -0.506348E-05  0.113E-02    1.29       3.0  T
   8     -6.7509442 -0.764416E-06  0.713E-03    1.28       4.7  T
   9     -6.7509447 -0.504576E-06  0.253E-03    1.29      13.2  T
  10     -6.7509448 -0.468822E-07  0.571E-04    1.29      58.4  T
  11     -6.7509448 -0.223898E-08  0.389E-04    1.29      85.8  T
     SCC iter.                  ...        0 min,  0.002 sec
     gradient                   ...        0 min,  0.000 sec
 * total energy  :    -6.6101257 Eh     change       -0.1605993E-03 Eh
   gradient norm :     0.0038807 Eh/α   predicted    -0.1352680E-03 ( -15.77%)
   displ. norm   :     0.2317888 α      lambda       -0.1250293E-03
   maximum displ.:     0.1171290 α      in ANC's #4, #5, #10, ...

........................................................................
.............................. CYCLE   30 ..............................
........................................................................
   1     -6.7505046 -0.675050E+01  0.377E-01    1.29       0.0  T
   2     -6.7504202  0.844169E-04  0.306E-01    1.29       1.0  T
   3     -6.7479259  0.249421E-02  0.489E-01    1.28       1.0  T
   4     -6.7499725 -0.204659E-02  0.156E-01    1.30       1.0  T
   5     -6.7505184 -0.545910E-03  0.278E-02    1.29       1.2  T
   6     -6.7505162  0.226722E-05  0.299E-02    1.29       1.1  T
   7     -6.7505231 -0.696272E-05  0.604E-03    1.29       5.5  T
   8     -6.7505231  0.849693E-07  0.437E-03    1.29       7.6  T
   9     -6.7505232 -0.173541E-06  0.130E-03    1.29      25.6  T
  10     -6.7505232 -0.110520E-07  0.276E-04    1.29     120.9  T
  11     -6.7505232  0.369001E-09  0.184E-04    1.29     180.7  T
     SCC iter.                  ...        0 min,  0.002 sec
     gradient                   ...        0 min,  0.000 sec
 * total energy  :    -6.6102125 Eh     change       -0.8683021E-04 Eh
   gradient norm :     0.0044555 Eh/α   predicted    -0.6587493E-04 ( -24.13%)
   displ. norm   :     0.2261223 α      lambda       -0.1414109E-03
   maximum displ.:     0.1352224 α      in ANC's #4, #5, #10, ...

........................................................................
.............................. CYCLE   31 ..............................
........................................................................
   1     -6.7510444 -0.675104E+01  0.425E-01    1.33       0.0  T
   2     -6.7505193  0.525132E-03  0.386E-01    1.34       1.0  T
   3     -6.7484613  0.205792E-02  0.480E-01    1.31       1.0  T
   4     -6.7491340 -0.672645E-03  0.277E-01    1.34       1.0  T
   5     -6.7510532 -0.191927E-02  0.547E-02    1.33       1.0  T
   6     -6.7510957 -0.424175E-04  0.269E-02    1.33       1.2  T
   7     -6.7510954  0.297371E-06  0.187E-02    1.33       1.8  T
   8     -6.7511006 -0.520931E-05  0.524E-03    1.33       6.4  T
   9     -6.7511006 -0.525658E-07  0.320E-03    1.33      10.4  T
  10     -6.7511007 -0.119137E-06  0.427E-04    1.33      78.1  T
  11     -6.7511007 -0.749867E-09  0.677E-05    1.33     492.2  T
     SCC iter.                  ...        0 min,  0.002 sec
     gradient                   ...        0 min,  0.000 sec
 * total energy  :    -6.6102872 Eh     change       -0.7475197E-04 Eh
   gradient norm :     0.0053923 Eh/α   predicted    -0.7432010E-04 (  -0.58%)
   displ. norm   :     0.2393740 α      lambda       -0.1442520E-03
   maximum displ.:     0.1365109 α      in ANC's #4, #10, #6, ...

........................................................................
.............................. CYCLE   32 ..............................
........................................................................
   1     -6.7512653 -0.675127E+01  0.392E-01    1.36       0.0  T
   2     -6.7510142  0.251095E-03  0.336E-01    1.38       1.0  T
   3     -6.7482098  0.280439E-02  0.486E-01    1.34       1.0  T
   4     -6.7503471 -0.213734E-02  0.195E-01    1.38       1.0  T
   5     -6.7512748 -0.927693E-03  0.382E-02    1.36       1.0  T
   6     -6.7512858 -0.110027E-04  0.318E-02    1.37       1.0  T
   7     -6.7512893 -0.350913E-05  0.174E-02    1.37       1.9  T
   8     -6.7512933 -0.397840E-05  0.466E-03    1.37       7.2  T
   9     -6.7512935 -0.190756E-06  0.183E-03    1.37      18.2  T
  10     -6.7512935 -0.287776E-07  0.433E-04    1.37      77.0  T
  11     -6.7512935 -0.297776E-09  0.184E-04    1.37     181.1  T
     SCC iter.                  ...        0 min,  0.002 sec
     gradient                   ...        0 min,  0.000 sec
 * total energy  :    -6.6103561 Eh     change       -0.6881995E-04 Eh
   gradient norm :     0.0040332 Eh/α   predicted    -0.7625843E-04 (  10.81%)
   displ. norm   :     0.1939419 α      lambda       -0.9376767E-04
   maximum displ.:     0.1049835 α      in ANC's #5, #10, #4, ...

........................................................................
.............................. CYCLE   33 ..............................
........................................................................
   1     -6.7495972 -0.674960E+01  0.381E-01    1.37       0.0  T
   2     -6.7495984 -0.121073E-05  0.242E-01    1.37       1.0  T
   3     -6.7495828  0.156523E-04  0.390E-02    1.37       1.0  T
   4     -6.7495838 -0.984182E-06  0.337E-02    1.37       1.0  T
   5     -6.7495875 -0.370184E-05  0.317E-02    1.37       1.1  T
   6     -6.7495979 -0.104527E-04  0.132E-02    1.37       2.5  T
   7     -6.7495996 -0.168312E-05  0.376E-03    1.37       8.9  T
   8     -6.7495997 -0.133388E-06  0.130E-03    1.37      25.6  T
   9     -6.7495997 -0.113971E-07  0.584E-04    1.37      57.0  T
  10     -6.7495997 -0.880519E-09  0.200E-04    1.37     166.3  T
     SCC iter.                  ...        0 min,  0.002 sec
     gradient                   ...        0 min,  0.000 sec
 * total energy  :    -6.6104081 Eh     change       -0.5205880E-04 Eh
   gradient norm :     0.0049580 Eh/α   predicted    -0.4864866E-04 (  -6.55%)
   displ. norm   :     0.1386515 α      lambda       -0.1248619E-03
   maximum displ.:     0.1053924 α      in ANC's #7, #2, #10, ...

........................................................................
.............................. CYCLE   34 ..............................
........................................................................
   1     -6.7506343 -0.675063E+01  0.211E-01    1.38       0.0  T
   2     -6.7505589  0.753827E-04  0.135E-01    1.38       1.0  T
   3     -6.7500021  0.556726E-03  0.270E-01    1.38       1.0  T
   4     -6.7506461 -0.643937E-03  0.254E-02    1.38       1.3  T
   5     -6.7506474 -0.128472E-05  0.151E-02    1.38       2.2  T
   6     -6.7506345  0.128371E-04  0.283E-02    1.38       1.2  T
   7     -6.7506489 -0.143828E-04  0.513E-03    1.38       6.5  T
   8     -6.7506490 -0.112714E-06  0.110E-03    1.38      30.4  T
   9     -6.7506490  0.103532E-08  0.501E-04    1.38      66.6  T
  10     -6.7506490 -0.236219E-08  0.221E-04    1.38     150.6  T
     SCC iter.                  ...        0 min,  0.001 sec
     gradient                   ...        0 min,  0.000 sec
 * total energy  :    -6.6104775 Eh     change       -0.6937760E-04 Eh
   gradient norm :     0.0046213 Eh/α   predicted    -0.6363137E-04 (  -8.28%)
   displ. norm   :     0.2440845 α      lambda       -0.1155892E-03
   maximum displ.:     0.1293650 α      in ANC's #7, #5, #10, ...

........................................................................
.............................. CYCLE   35 ..............................
........................................................................
   1     -6.7498551 -0.674986E+01  0.462E-01    1.37       0.0  T
   2     -6.7498534  0.169372E-05  0.288E-01    1.37       1.0  T
   3     -6.7494418  0.411610E-03  0.207E-01    1.37       1.0  T
   4     -6.7498464 -0.404584E-03  0.410E-02    1.37       1.0  T
   5     -6.7497882  0.582006E-04  0.683E-02    1.37       1.0  T
   6     -6.7498557 -0.674620E-04  0.149E-02    1.37       2.2  T
   7     -6.7498584 -0.278604E-05  0.595E-03    1.37       5.6  T
   8     -6.7498589 -0.451093E-06  0.161E-03    1.37      20.6  T
   9     -6.7498589 -0.914107E-09  0.937E-04    1.37      35.6  T
  10     -6.7498589 -0.885159E-08  0.242E-04    1.37     137.6  T
     SCC iter.                  ...        0 min,  0.001 sec
     gradient                   ...        0 min,  0.000 sec
 * total energy  :    -6.6105622 Eh     change       -0.8472010E-04 Eh
   gradient norm :     0.0051269 Eh/α   predicted    -0.6123715E-04 ( -27.72%)
   displ. norm   :     0.4665926 α      lambda       -0.2081734E-03
   maximum displ.:     0.2689252 α      in ANC's #7, #6, #5, ...

........................................................................
.............................. CYCLE   36 ..............................
........................................................................
   1     -6.7502446 -0.675024E+01  0.865E-01    1.34       0.0  T
   2     -6.7501734  0.712194E-04  0.519E-01    1.33       1.0  T
   3     -6.7438146  0.635882E-02  0.859E-01    1.36       1.0  T
   4     -6.7499345 -0.611988E-02  0.125E-01    1.33       1.0  T
   5     -6.7501523 -0.217864E-03  0.998E-02    1.34       1.0  T
   6     -6.7502128 -0.604465E-04  0.642E-02    1.33       1.0  T
   7     -6.7502648 -0.520100E-04  0.153E-02    1.34       2.2  T
   8     -6.7502664 -0.158948E-05  0.340E-03    1.34       9.8  T
   9     -6.7502664 -0.634056E-09  0.176E-03    1.34      19.0  T
  10     -6.7502664 -0.400353E-07  0.342E-04    1.34      97.5  T
  11     -6.7502664 -0.350704E-09  0.266E-04    1.34     125.2  T
     SCC iter.                  ...        0 min,  0.001 sec
     gradient                   ...        0 min,  0.000 sec
 * total energy  :    -6.6106587 Eh     change       -0.9647046E-04 Eh
   gradient norm :     0.0092275 Eh/α   predicted    -0.1267485E-03 (  31.39%)
   displ. norm   :     0.2814739 α      lambda       -0.1699481E-03
   maximum displ.:     0.1561263 α      in ANC's #7, #4, #5, ...

........................................................................
.............................. CYCLE   37 ..............................
........................................................................
   1     -6.7486928 -0.674869E+01  0.425E-01    1.34       0.0  T
   2     -6.7485005  0.192261E-03  0.344E-01    1.34       1.0  T
   3     -6.7441398  0.436076E-02  0.608E-01    1.31       1.0  T
   4     -6.7479964 -0.385660E-02  0.179E-01    1.35       1.0  T
   5     -6.7487105 -0.714080E-03  0.299E-02    1.34       1.1  T
   6     -6.7487094  0.103138E-05  0.292E-02    1.34       1.1  T
   7     -6.7487122 -0.273335E-05  0.175E-02    1.34       1.9  T
   8     -6.7487151 -0.292661E-05  0.383E-03    1.34       8.7  T
   9     -6.7487152 -0.150768E-06  0.206E-03    1.34      16.2  T
  10     -6.7487153 -0.305844E-07  0.368E-04    1.34      90.7  T
  11     -6.7487153  0.481579E-10  0.316E-04    1.34     105.6  T
     SCC iter.                  ...        0 min,  0.001 sec
     gradient                   ...        0 min,  0.000 sec
 * total energy  :    -6.6107920 Eh     change       -0.1332827E-03 Eh
   gradient norm :     0.0087822 Eh/α   predicted    -0.9170750E-04 ( -31.19%)
   displ. norm   :     0.4071034 α      lambda       -0.3869303E-03
   maximum displ.:     0.3151160 α      in ANC's #7, #9, #6, ...

........................................................................
.............................. CYCLE   38 ..............................
........................................................................
   1     -6.7543555 -0.675436E+01  0.444E-01    1.35       0.0  T
   2     -6.7533886  0.966895E-03  0.423E-01    1.36       1.0  T
   3     -6.7520375  0.135116E-02  0.505E-01    1.33       1.0  T
   4     -6.7516056  0.431937E-03  0.361E-01    1.38       1.0  T
   5     -6.7544524 -0.284681E-02  0.340E-02    1.35       1.0  T
   6     -6.7544469  0.550506E-05  0.299E-02    1.35       1.1  T
   7     -6.7544622 -0.153139E-04  0.162E-02    1.35       2.1  T
   8     -6.7544636 -0.142333E-05  0.559E-03    1.35       6.0  T
   9     -6.7544638 -0.168033E-06  0.412E-03    1.35       8.1  T
  10     -6.7544639 -0.163849E-06  0.656E-04    1.35      50.8  T
  11     -6.7544639 -0.894642E-08  0.266E-04    1.35     125.2  T
     SCC iter.                  ...        0 min,  0.001 sec
     gradient                   ...        0 min,  0.000 sec
 * total energy  :    -6.6108675 Eh     change       -0.7552536E-04 Eh
   gradient norm :     0.0119946 Eh/α   predicted    -0.2255286E-03 ( 198.61%)
   displ. norm   :     0.4953667 α      lambda       -0.4970822E-03
   maximum displ.:     0.2702881 α      in ANC's #7, #5, #4, ...

........................................................................
.............................. CYCLE   39 ..............................
........................................................................
   1     -6.7464391 -0.674644E+01  0.891E-01    1.32       0.0  T
   2     -6.7464144  0.246761E-04  0.571E-01    1.31       1.0  T
   3     -6.7432469  0.316746E-02  0.486E-01    1.33       1.0  T
   4     -6.7459952 -0.274830E-02  0.222E-01    1.33       1.0  T
   5     -6.7464327 -0.437485E-03  0.589E-02    1.31       1.0  T
   6     -6.7462866  0.146094E-03  0.931E-02    1.32       1.0  T
   7     -6.7464715 -0.184886E-03  0.135E-02    1.32       2.5  T
   8     -6.7464723 -0.784113E-06  0.668E-03    1.32       5.0  T
   9     -6.7464728 -0.518658E-06  0.260E-03    1.32      12.8  T
  10     -6.7464728 -0.386973E-07  0.785E-04    1.32      42.5  T
  11     -6.7464728 -0.256381E-08  0.285E-04    1.32     117.1  T
     SCC iter.                  ...        0 min,  0.001 sec
     gradient                   ...        0 min,  0.000 sec
 * total energy  :    -6.6111671 Eh     change       -0.2995845E-03 Eh
   gradient norm :     0.0091520 Eh/α   predicted    -0.3095293E-03 (   3.32%)
   displ. norm   :     0.3431161 α      lambda       -0.3556432E-03
   maximum displ.:     0.2270729 α      in ANC's #7, #6, #5, ...

........................................................................
.............................. CYCLE   40 ..............................
........................................................................
   1     -6.7452821 -0.674528E+01  0.605E-01    1.29       0.0  T
   2     -6.7452634  0.186874E-04  0.375E-01    1.28       1.0  T
   3     -6.7436589  0.160456E-02  0.390E-01    1.32       1.0  T
   4     -6.7448630 -0.120413E-02  0.142E-01    1.28       1.0  T
   5     -6.7452776 -0.414565E-03  0.508E-02    1.29       1.0  T
   6     -6.7452633  0.142418E-04  0.467E-02    1.29       1.0  T
   7     -6.7452970 -0.336740E-04  0.856E-03    1.28       3.9  T
   8     -6.7452973 -0.258761E-06  0.253E-03    1.28      13.2  T
   9     -6.7452973 -0.799505E-07  0.840E-04    1.28      39.7  T
  10     -6.7452974 -0.123334E-08  0.313E-04    1.28     106.6  T
     SCC iter.                  ...        0 min,  0.001 sec
     gradient                   ...        0 min,  0.000 sec
 * total energy  :    -6.6112885 Eh     change       -0.1214206E-03 Eh
   gradient norm :     0.0106543 Eh/α   predicted    -0.1987582E-03 (  63.69%)
   displ. norm   :     0.2434228 α      lambda       -0.3101038E-03
   maximum displ.:     0.2055050 α      in ANC's #7, #10, #6, ...

........................................................................
.............................. CYCLE   41 ..............................
........................................................................
   1     -6.7478950 -0.674790E+01  0.199E-01    1.29       0.0  T
   2     -6.7478739  0.211194E-04  0.130E-01    1.29       1.0  T
   3     -6.7472898  0.584140E-03  0.247E-01    1.30       1.0  T
   4     -6.7478198 -0.530008E-03  0.849E-02    1.30       1.0  T
   5     -6.7478847 -0.648600E-04  0.303E-02    1.29       1.1  T
   6     -6.7478900 -0.535667E-05  0.252E-02    1.29       1.3  T
   7     -6.7479023 -0.122890E-04  0.334E-03    1.29      10.0  T
   8     -6.7479023 -0.302052E-07  0.123E-03    1.29      27.2  T
   9     -6.7479023 -0.187822E-08  0.379E-04    1.29      88.1  T
  10     -6.7479023 -0.927813E-09  0.612E-05    1.29     544.8  T
     SCC iter.                  ...        0 min,  0.001 sec
     gradient                   ...        0 min,  0.000 sec
 * total energy  :    -6.6115067 Eh     change       -0.2182230E-03 Eh
   gradient norm :     0.0047828 Eh/α   predicted    -0.1642377E-03 ( -24.74%)
   displ. norm   :     0.6376571 α      lambda       -0.3593030E-03
   maximum displ.:     0.5302972 α      in ANC's #7, #6, #4, ...

........................................................................
.............................. CYCLE   42 ..............................
........................................................................
   1     -6.7462777 -0.674628E+01  0.719E-01    1.30       0.0  T
   2     -6.7453260  0.951661E-03  0.616E-01    1.30       1.0  T
   3     -6.7379247  0.740130E-02  0.859E-01    1.27       1.0  T
   4     -6.7431920 -0.526732E-02  0.393E-01    1.33       1.0  T
   5     -6.7463763 -0.318433E-02  0.572E-02    1.29       1.0  T
   6     -6.7463568  0.195703E-04  0.573E-02    1.30       1.0  T
   7     -6.7464045 -0.476795E-04  0.283E-02    1.30       1.2  T
   8     -6.7464086 -0.410333E-05  0.793E-03    1.30       4.2  T
   9     -6.7464087 -0.123883E-06  0.392E-03    1.30       8.5  T
  10     -6.7464088 -0.137588E-06  0.931E-04    1.30      35.8  T
  11     -6.7464088 -0.124993E-07  0.696E-04    1.30      47.9  T
     SCC iter.                  ...        0 min,  0.001 sec
     gradient                   ...        0 min,  0.001 sec
 * total energy  :    -6.6115337 Eh     change       -0.2697133E-04 Eh
   gradient norm :     0.0095848 Eh/α   predicted    -0.2526943E-03 ( 836.90%)
   displ. norm   :     0.1858555 α      lambda       -0.3504010E-03
   maximum displ.:     0.0900242 α      in ANC's #7, #1, #5, ...
 * RMSD in coord.:     1.6181772 α      energy gain  -0.5021209E-02 Eh

generating ANC from model Hessian ...
Using Lindh-Hessian (1995)
 Shifting diagonal of input Hessian by    1.0377806891401815E-002
 Lowest  eigenvalues of input Hessian
    0.010000    0.010244    0.010282    0.010357    0.000000    0.000000
    0.000000    0.000000    0.000000    0.000000    0.010476    0.010622
    0.011113    0.011401    0.011767    0.013996    0.015512    0.022267
 Highest eigenvalues
    0.463718    0.495324    0.552532    0.642912    0.779330    1.285971


........................................................................
.............................. CYCLE   43 ..............................
........................................................................
   1     -6.7497255 -0.674973E+01  0.329E-01    1.33       0.0  T
   2     -6.7495930  0.132503E-03  0.256E-01    1.33       1.0  T
   3     -6.7480762  0.151683E-02  0.400E-01    1.33       1.0  T
   4     -6.7492813 -0.120508E-02  0.171E-01    1.31       1.0  T
   5     -6.7497444 -0.463066E-03  0.284E-02    1.33       1.2  T
   6     -6.7497378  0.657967E-05  0.282E-02    1.33       1.2  T
   7     -6.7497470 -0.919746E-05  0.845E-03    1.33       3.9  T
   8     -6.7497477 -0.765629E-06  0.240E-03    1.33      13.9  T
   9     -6.7497478 -0.241174E-07  0.103E-03    1.33      32.4  T
  10     -6.7497478 -0.390830E-08  0.172E-04    1.33     193.8  T
  11     -6.7497478  0.105985E-08  0.266E-04    1.33     125.4  T
[...]
   7     -6.7422162 -0.179216E-04  0.136E-02    1.29       2.5  T
   8     -6.7422200 -0.383995E-05  0.185E-03    1.29      18.1  T
   9     -6.7422200 -0.980151E-08  0.796E-04    1.29      41.9  T
  10     -6.7422200 -0.381265E-08  0.230E-04    1.29     144.8  T
     SCC iter.                  ...        0 min,  0.001 sec
     gradient                   ...        0 min,  0.000 sec
 * total energy  :    -6.6130587 Eh     change        0.2285584E-04 Eh
   gradient norm :     0.0067225 Eh/α   predicted    -0.2532852E-04 (-210.82%)
   displ. norm   :     0.1488272 α      lambda       -0.1031982E-03
   maximum displ.:     0.1016835 α      in ANC's #1, #2, #8, ...

........................................................................
.............................. CYCLE   65 ..............................
........................................................................
   1     -6.7442160 -0.674422E+01  0.331E-01    1.28       0.0  T
   2     -6.7441935  0.224929E-04  0.209E-01    1.27       1.0  T
   3     -6.7428455  0.134796E-02  0.291E-01    1.30       1.0  T
   4     -6.7439663 -0.112074E-02  0.106E-01    1.27       1.0  T
   5     -6.7442146 -0.248337E-03  0.322E-02    1.27       1.0  T
   6     -6.7442211 -0.648603E-05  0.148E-02    1.27       2.3  T
   7     -6.7442216 -0.490435E-06  0.849E-03    1.27       3.9  T
   8     -6.7442224 -0.790044E-06  0.125E-03    1.27      26.8  T
   9     -6.7442224 -0.714505E-08  0.466E-04    1.27      71.5  T
  10     -6.7442224 -0.608941E-09  0.154E-04    1.27     217.1  T
     SCC iter.                  ...        0 min,  0.002 sec
     gradient                   ...        0 min,  0.001 sec
 * total energy  :    -6.6131156 Eh     change       -0.5683934E-04 Eh
   gradient norm :     0.0020432 Eh/α   predicted    -0.5274108E-04 (  -7.21%)
   displ. norm   :     0.0315142 α      lambda       -0.1597360E-04
   maximum displ.:     0.0143888 α      in ANC's #7, #8, #3, ...

........................................................................
.............................. CYCLE   66 ..............................
........................................................................
   1     -6.7444467 -0.674445E+01  0.672E-02    1.27       0.0  T
   2     -6.7444439  0.283153E-05  0.428E-02    1.27       1.0  T
   3     -6.7443714  0.724038E-04  0.827E-02    1.27       1.0  T
   4     -6.7444469 -0.754088E-04  0.984E-03    1.27       3.4  T
   5     -6.7444461  0.741530E-06  0.871E-03    1.27       3.8  T
   6     -6.7444461  0.161254E-07  0.825E-03    1.27       4.0  T
   7     -6.7444474 -0.125955E-05  0.136E-03    1.27      24.6  T
   8     -6.7444474 -0.594960E-08  0.329E-04    1.27     101.3  T
   9     -6.7444474 -0.272521E-09  0.118E-04    1.27     283.2  T
     SCC iter.                  ...        0 min,  0.001 sec
     gradient                   ...        0 min,  0.000 sec
 * total energy  :    -6.6131212 Eh     change       -0.5600933E-05 Eh
   gradient norm :     0.0009050 Eh/α   predicted    -0.7995901E-05 (  42.76%)
   displ. norm   :     0.0735957 α      lambda       -0.6166024E-05
   maximum displ.:     0.0559507 α      in ANC's #1, #4, #14, ...
 * RMSD in coord.:     1.1977072 α      energy gain  -0.1587479E-02 Eh

generating ANC from model Hessian ...
Using Lindh-Hessian (1995)
 Shifting diagonal of input Hessian by    1.0281009356860934E-002
 Lowest  eigenvalues of input Hessian
    0.010000    0.010009    0.010128    0.010191    0.000000    0.000000
    0.000000    0.000000    0.000000    0.000000    0.010288    0.010573
    0.011042    0.011808    0.013418    0.014585    0.021047    0.022801
 Highest eigenvalues
    0.401563    0.499063    0.526948    0.645681    0.781500    1.276520


........................................................................
.............................. CYCLE   67 ..............................
........................................................................
   1     -6.7448764 -0.674488E+01  0.143E-01    1.27       0.0  T
   2     -6.7448707  0.575285E-05  0.893E-02    1.27       1.0  T
   3     -6.7446621  0.208558E-03  0.136E-01    1.28       1.0  T
   4     -6.7448734 -0.211273E-03  0.224E-02    1.27       1.5  T
   5     -6.7448779 -0.447460E-05  0.865E-03    1.27       3.9  T
   6     -6.7448739  0.399668E-05  0.134E-02    1.27       2.5  T
   7     -6.7448781 -0.425974E-05  0.132E-03    1.27      25.3  T
   8     -6.7448782 -0.894385E-08  0.481E-04    1.27      69.3  T
   9     -6.7448782 -0.671914E-09  0.159E-04    1.27     209.3  T
     SCC iter.                  ...        0 min,  0.001 sec
     gradient                   ...        0 min,  0.001 sec
 * total energy  :    -6.6131247 Eh     change       -0.3520630E-05 Eh
   gradient norm :     0.0008187 Eh/α   predicted     0.0000000E+00 (-100.00%)
   displ. norm   :     0.0231468 α      lambda       -0.4933897E-05
   maximum displ.:     0.0116583 α      in ANC's #11, #12, #7, ...

   *** GEOMETRY OPTIMIZATION CONVERGED AFTER 67 ITERATIONS ***

------------------------------------------------------------------------
 total energy gain   :        -0.5203934 Eh     -326.5518 kcal/mol
 total RMSD          :         2.6878005 a0        1.4223 Å
 total power (kW/mol):       -20.3924293 (step)-8584.7248 (real)
------------------------------------------------------------------------

 ANCopt (total)                0 d,  0 h,  0 min,  0.159 sec
 optimizer setup                ...        0 min,  0.000 sec (  0.018%)
 model hessian                  ...        0 min,  0.001 sec (  0.352%)
 ANC generation                 ...        0 min,  0.000 sec (  0.139%)
 coordinate transformation      ...        0 min,  0.000 sec (  0.096%)
 single point calculation       ...        0 min,  0.153 sec ( 96.311%)
 optimization log               ...        0 min,  0.002 sec (  1.003%)
 hessian update                 ...        0 min,  0.001 sec (  0.884%)
 rational function              ...        0 min,  0.001 sec (  0.584%)

================
 final structure:
================
9
 xtb: 6.5.1 (conda-forge)
Be           0.07438013166637        1.14538944777201        0.97152304203326
B            0.67951946317848       -0.33231980383025        1.33696396150049
B            1.20325780050282        0.76724468721969        2.40164628548188
B            1.67795493823844       -0.62964432959038        2.65300595029291
H            2.20114021729554       -1.57834183893367        3.11133762369271
H            2.12685606194106        2.02834979309581        3.51851122268079
H            2.43577861724284        2.69337471789499        3.94147155638195
H           -0.05649328623505        0.12860020162759        4.50031257608051
H           -0.48639394383485        0.14059412454918        5.16972778179850

 Bond Distances (Angstroems)
 ---------------------------
Be1-B2=1.6381        Be1-B3=1.8608        B2-Be1=1.6381        B2-B3=1.6177         B2-B4=1.6785         B3-Be1=1.8608        
B3-B2=1.6177         B3-B4=1.4966         B4-B2=1.6785         B4-B3=1.4966         B4-H5=1.1764         H5-B4=1.1764         
H8-H9=0.7957         H9-H8=0.7957         
 H  H  Rav=0.7957 sigma=0.0000  Rmin=0.7957  Rmax=0.7957     1
 B  H  Rav=1.1764 sigma=0.0000  Rmin=1.1764  Rmax=1.1764     1
 B  Be Rav=1.7495 sigma=0.1114  Rmin=1.6381  Rmax=1.8608     2
 B  B  Rav=1.5976 sigma=0.0756  Rmin=1.4966  Rmax=1.6785     3

 selected bond angles (degree)
 --------------------
B3-Be1-B2= 54.63               B3-B2-Be1= 69.71               B4-B2-Be1=123.67               B4-B2-B3= 53.97                
B2-B3-Be1= 55.66               B4-B3-Be1=120.74               B4-B3-B2= 65.09                B3-B4-B2= 60.94                
H5-B4-B2=135.47                H5-B4-B3=163.59                

 selected dihedral angles (degree)
 ---------------------------------
B4-B2-Be1-B3=  0.94           B4-B3-Be1-B2=358.98           Be1-B3-B2-B4=180.97           B4-B3-B2-Be1=179.03           
B3-B4-B2-Be1=358.91           H5-B4-B2-Be1=178.71           H5-B4-B2-B3=179.80            B2-B4-B3-Be1=  0.93           
H5-B4-B3-Be1=181.43           H5-B4-B3-B2=180.50            

 CMA Distance (Angstroems)
 ---------------------------
R(CMA):  2.1200
           -------------------------------------------------
          |                Final Singlepoint                |
           -------------------------------------------------

          ...................................................
          :                      SETUP                      :
          :.................................................:
          :  # basis functions                  21          :
          :  # atomic orbitals                  21          :
          :  # shells                           13          :
          :  # electrons                        16          :
          :  max. iterations                   250          :
          :  Hamiltonian                  GFN2-xTB          :
          :  restarted?                      false          :
          :  GBSA solvation                  false          :
          :  PC potential                    false          :
          :  electronic temp.          300.0000000     K    :
          :  accuracy                    1.0000000          :
          :  -> integral cutoff          0.2500000E+02      :
          :  -> integral neglect         0.1000000E-07      :
          :  -> SCF convergence          0.1000000E-05 Eh   :
          :  -> wf. convergence          0.1000000E-03 e    :
          :  Broyden damping             0.4000000          :
          ...................................................

 iter      E             dE          RMSdq      gap      omega  full diag
   1     -6.7448782 -0.674488E+01  0.214E-05    1.27       0.0  T
   2     -6.7448782  0.772449E-11  0.228E-05    1.27    1460.2  T
   3     -6.7448782  0.591527E-12  0.224E-05    1.27    1485.6  T

   *** convergence criteria satisfied after 3 iterations ***

         #    Occupation            Energy/Eh            Energy/eV
      -------------------------------------------------------------
         1        2.0000           -0.4439605             -12.0808
         2        2.0000           -0.4370167             -11.8918
         3        2.0000           -0.4007303             -10.9044
         4        2.0000           -0.3681101             -10.0168
         5        2.0000           -0.3170220              -8.6266
         6        2.0000           -0.2833262              -7.7097
         7        2.0000           -0.2700773              -7.3492
         8        2.0000           -0.2411511              -6.5621 (HOMO)
         9                         -0.1945089              -5.2929 (LUMO)
        10                         -0.1517538              -4.1294
        11                         -0.1384212              -3.7666
        12                         -0.0745332              -2.0282
        13                         -0.0076406              -0.2079
       ...                                ...                  ...
        21                          1.1233672              30.5684
      -------------------------------------------------------------
                  HL-Gap            0.0466422 Eh            1.2692 eV
             Fermi-level           -0.2178300 Eh           -5.9275 eV

 SCC (total)                   0 d,  0 h,  0 min,  0.001 sec
 SCC setup                      ...        0 min,  0.000 sec (  1.902%)
 Dispersion                     ...        0 min,  0.000 sec (  5.305%)
 classical contributions        ...        0 min,  0.000 sec (  1.602%)
 integral evaluation            ...        0 min,  0.000 sec (  9.376%)
 iterations                     ...        0 min,  0.000 sec ( 34.134%)
 molecular gradient             ...        0 min,  0.001 sec ( 44.978%)
 printout                       ...        0 min,  0.000 sec (  2.052%)

         :::::::::::::::::::::::::::::::::::::::::::::::::::::
         ::                     SUMMARY                     ::
         :::::::::::::::::::::::::::::::::::::::::::::::::::::
         :: total energy              -6.613124694569 Eh    ::
         :: gradient norm              0.000818630443 Eh/a0 ::
         :: HOMO-LUMO gap              1.269198850079 eV    ::
         ::.................................................::
         :: SCC energy                -6.744878159021 Eh    ::
         :: -> isotropic ES           -0.000468781172 Eh    ::
         :: -> anisotropic ES          0.018223875679 Eh    ::
         :: -> anisotropic XC         -0.006033048307 Eh    ::
         :: -> dispersion             -0.003173559559 Eh    ::
         :: repulsion energy           0.131747966826 Eh    ::
         :: add. restraining           0.000000000000 Eh    ::
         :: total charge               0.000000000000 e     ::
         :::::::::::::::::::::::::::::::::::::::::::::::::::::

           -------------------------------------------------
          |                Property Printout                |
           -------------------------------------------------

    * Orbital Energies and Occupations

         #    Occupation            Energy/Eh            Energy/eV
      -------------------------------------------------------------
         1        2.0000           -0.4439605             -12.0808
         2        2.0000           -0.4370167             -11.8918
         3        2.0000           -0.4007303             -10.9044
         4        2.0000           -0.3681101             -10.0168
         5        2.0000           -0.3170220              -8.6266
         6        2.0000           -0.2833262              -7.7097
         7        2.0000           -0.2700773              -7.3492
         8        2.0000           -0.2411511              -6.5621 (HOMO)
         9                         -0.1945089              -5.2929 (LUMO)
        10                         -0.1517538              -4.1294
        11                         -0.1384212              -3.7666
        12                         -0.0745332              -2.0282
        13                         -0.0076406              -0.2079
        14                          0.0035102               0.0955
        15                          0.1522028               4.1416
        16                          0.1867399               5.0815
        17                          0.2431898               6.6175
        18                          0.3891262              10.5887
        19                          0.5974982              16.2588
       ...                                ...                  ...
        21                          1.1233672              30.5684
      -------------------------------------------------------------
                  HL-Gap            0.0466422 Eh            1.2692 eV
             Fermi-level           -0.2178300 Eh           -5.9275 eV

     #   Z          covCN         q      C6AA      α(0)
     1   4 Be       1.803     0.362    15.257     9.053
     2   5 B        2.836    -0.088    23.084     8.024
     3   5 B        2.838    -0.064    22.612     7.941
     4   5 B        2.872     0.047    20.618     7.580
     5   1 H        0.937    -0.177     9.199     4.742
     6   1 H        0.524     0.011     4.114     3.427
     7   1 H        0.524    -0.062     6.324     4.250
     8   1 H        0.749     0.008     3.036     2.750
     9   1 H        0.749    -0.037     3.924     3.127

 Mol. C6AA /au·bohr⁶  :        838.903572
 Mol. C8AA /au·bohr⁸  :      23173.194212
 Mol. α(0) /au        :         50.893354


Wiberg/Mayer (AO) data.
largest (>0.10) Wiberg bond orders for each atom

 ---------------------------------------------------------------------------
     #   Z sym  total        # sym  WBO       # sym  WBO       # sym  WBO
 ---------------------------------------------------------------------------
     1   4 Be   2.184 --     2 B    1.340     3 B    0.702     4 B    0.124
     2   5 B    3.511 --     1 Be   1.340     3 B    1.199     4 B    0.919
     3   5 B    3.560 --     4 B    1.510     2 B    1.199     1 Be   0.702
                             6 H    0.101
     4   5 B    3.599 --     3 B    1.510     5 H    0.953     2 B    0.919
                             1 Be   0.124
     5   1 H    0.969 --     4 B    0.953
     6   1 H    1.000 --     7 H    0.881     3 B    0.101
     7   1 H    0.996 --     6 H    0.881
     8   1 H    1.000 --     9 H    0.966
     9   1 H    0.999 --     8 H    0.966
 ---------------------------------------------------------------------------

Topologies differ in total number of bonds
Writing topology from bond orders to xtbtopo.mol

molecular dipole:
                 x           y           z       tot (Debye)
 q only:       -1.003       0.937      -1.334
   full:       -1.180       1.707      -1.307       6.234
molecular quadrupole (traceless):
                xx          xy          yy          xz          yz          zz
 q only:        2.231       1.071       6.428      -8.915       2.748      -8.660
  q+dip:       -1.488      -1.834      12.940      -7.762       3.577     -11.452
   full:        0.678      -0.903      10.281      -9.826       2.854     -10.959

           -------------------------------------------------
          |                Geometry Summary                 |
           -------------------------------------------------

      molecular mass/u    :       46.4849710
   center of mass at/Å    :        0.9774297       0.2507696       2.1137496
  moments of inertia/u·Å² :        0.4722651E+02   0.6716772E+02   0.8755072E+02
rotational constants/cm⁻¹ :        0.3569528E+00   0.2509782E+00   0.1925471E+00

 * 5 selected distances

     #   Z          #   Z                                           value/Å
     1   4 Be       2   5 B                                       1.6380982
     1   4 Be       3   5 B                                       1.8608093 (max)
     2   5 B        3   5 B                                       1.6176813
     3   5 B        4   5 B                                       1.4966023
     4   5 B        5   1 H                                       1.1763579 (min)

 * 3 distinct bonds (by element types)

   Z      Z             #   av. dist./Å        max./Å        min./Å
   1 H    5 B           1     1.1763579     1.1763579     1.1763579
   4 Be   5 B           2     1.7494538     1.8608093     1.6380982
   5 B    5 B           2     1.5571418     1.6176813     1.4966023


optimized geometry written to: xtbopt.xyz


           -------------------------------------------------
          | TOTAL ENERGY               -6.613124694569 Eh   |
          | GRADIENT NORM               0.000818630443 Eh/α |
          | HOMO-LUMO GAP               1.269198850079 eV   |
           -------------------------------------------------
########################################################################
[WARNING] Runtime exception occurred
-3- restart_readRestart: Dimension missmatch in restart file.
-2- restart_readRestart: Multiplicity missmatch in restart file.
-1- restart_readRestart: Number of electron missmatch in restart file.
Note: The following floating-point exceptions are signalling: IEEE_UNDERFLOW_FLAG
normal termination of xtb
########################################################################

------------------------------------------------------------------------
 * finished run on 2025/06/07 at 03:27:46.553     
------------------------------------------------------------------------
 total:
 * wall-time:     0 d,  0 h,  0 min,  0.177 sec
 *  cpu-time:     0 d,  0 h,  0 min,  2.300 sec
 * ratio c/w:    12.987 speedup
 SCF:
 * wall-time:     0 d,  0 h,  0 min,  0.013 sec
 *  cpu-time:     0 d,  0 h,  0 min,  0.147 sec
 * ratio c/w:    11.428 speedup
 ANC optimizer:
 * wall-time:     0 d,  0 h,  0 min,  0.161 sec
 *  cpu-time:     0 d,  0 h,  0 min,  2.124 sec
 * ratio c/w:    13.189 speedup

