      -----------------------------------------------------------      
     |                   =====================                   |     
     |                           x T B                           |     
     |                   =====================                   |     
     |                         S. Grimme                         |     
     |          Mulliken Center for Theoretical Chemistry        |     
     |                    University of Bonn                     |     
      -----------------------------------------------------------      

   * xtb version 6.5.1 (conda-forge) compiled by 'runner@Mac-1657629245115.local' on 2022-07-12

   xtb is free software: you can redistribute it and/or modify it under
   the terms of the GNU Lesser General Public License as published by
   the Free Software Foundation, either version 3 of the License, or
   (at your option) any later version.
   
   xtb is distributed in the hope that it will be useful,
   but WITHOUT ANY WARRANTY; without even the implied warranty of
   MERCHANTABILITY or FITNESS FOR A PARTICULAR PURPOSE.  See the
   GNU Lesser General Public License for more details.
   
   Cite this work as:
   * C. Bannwarth, E. Caldeweyher, S. Ehlert, A. Hansen, P. Pracht,
     J. Seibert, S. Spicher, S. Grimme, WIREs Comput. Mol. Sci., 2020, 11,
     e01493. DOI: 10.1002/wcms.1493
   
   for GFN2-xTB:
   * C. Bannwarth, S. Ehlert and S. Grimme., J. Chem. Theory Comput., 2019,
     15, 1652-1671. DOI: 10.1021/acs.jctc.8b01176
   for GFN1-xTB:
   * S. Grimme, C. Bannwarth, P. Shushkov, J. Chem. Theory Comput., 2017,
     13, 1989-2009. DOI: 10.1021/acs.jctc.7b00118
   for GFN0-xTB:
   * P. Pracht, E. Caldeweyher, S. Ehlert, S. Grimme, ChemRxiv, 2019, preprint.
     DOI: 10.26434/chemrxiv.8326202.v1
   for GFN-FF:
   * S. Spicher and S. Grimme, Angew. Chem. Int. Ed., 2020, 59, 15665-15673.
     DOI: 10.1002/anie.202004239
   
   for ALPB and GBSA implicit solvation:
   * S. Ehlert, M. Stahn, S. Spicher, S. Grimme, J. Chem. Theory Comput.,
     2021, 17, 4250-4261. DOI: 10.1021/acs.jctc.1c00471
   
   for DFT-D4:
   * E. Caldeweyher, C. Bannwarth and S. Grimme, J. Chem. Phys., 2017,
     147, 034112. DOI: 10.1063/1.4993215
   * E. Caldeweyher, S. Ehlert, A. Hansen, H. Neugebauer, S. Spicher,
     C. Bannwarth and S. Grimme, J. Chem. Phys., 2019, 150, 154122.
     DOI: 10.1063/1.5090222
   * E. Caldeweyher, J.-M. Mewes, S. Ehlert and S. Grimme, Phys. Chem. Chem. Phys.
     2020, 22, 8499-8512. DOI: 10.1039/D0CP00502A
   
   for sTDA-xTB:
   * S. Grimme and C. Bannwarth, J. Chem. Phys., 2016, 145, 054103.
     DOI: 10.1063/1.4959605
   
   in the mass-spec context:
   * V. Asgeirsson, C. Bauer and S. Grimme, Chem. Sci., 2017, 8, 4879.
     DOI: 10.1039/c7sc00601b
   * J. Koopman and S. Grimme, ACS Omega 2019, 4, 12, 15120-15133.
     DOI: 10.1021/acsomega.9b02011
   
   for metadynamics refer to:
   * S. Grimme, J. Chem. Theory Comput., 2019, 155, 2847-2862
     DOI: 10.1021/acs.jctc.9b00143
   
   for SPH calculations refer to:
   * S. Spicher and S. Grimme, J. Chem. Theory Comput., 2021, 17, 1701-1714
     DOI: 10.1021/acs.jctc.0c01306
   
   with help from (in alphabetical order)
   P. Atkinson, C. Bannwarth, F. Bohle, G. Brandenburg, E. Caldeweyher
   M. Checinski, S. Dohm, S. Ehlert, S. Ehrlich, I. Gerasimov, C. Hölzer
   A. Katbashev, J. Koopman, C. Lavigne, S. Lehtola, F. März, M. Müller,
   F. Musil, H. Neugebauer, J. Pisarek, C. Plett, P. Pracht, F. Pultar,
   J. Seibert, P. Shushkov, S. Spicher, M. Stahn, M. Steiner, T. Strunk,
   J. Stückrath, T. Rose, and J. Unsleber
   
 * started run on 2025/06/07 at 03:27:46.064     

           -------------------------------------------------
          |                Calculation Setup                |
           -------------------------------------------------

          program call               : xtb B3BeH3.xyz --gfn 2 --opt
          coordinate file            : B3BeH3.xyz
          omp threads                :                    16

   ID    Z sym.   atoms
    1    4 Be     1
    2    5 B      2-4
    3    1 H      5-7

molecular fragmentation (1/2 indicates fragments):
1222222
# atoms in fragment 1/2:     1     6
 fragment masses (1/2) :        9.01       35.46
CMA distance (Bohr)    :   4.754
constraining FC (au)   :  0.0500

           -------------------------------------------------
          |                 G F N 2 - x T B                 |
           -------------------------------------------------

        Reference                      10.1021/acs.jctc.8b01176
      * Hamiltonian:
        H0-scaling (s, p, d)           1.850000    2.230000    2.230000
        zeta-weighting                 0.500000
      * Dispersion:
        s8                             2.700000
        a1                             0.520000
        a2                             5.000000
        s9                             5.000000
      * Repulsion:
        kExp                           1.500000    1.000000
        rExp                           1.000000
      * Coulomb:
        alpha                          2.000000
        third order                    shell-resolved
        anisotropic                    true
        a3                             3.000000
        a5                             4.000000
        cn-shift                       1.200000
        cn-exp                         4.000000
        max-rad                        5.000000


          ...................................................
          :                      SETUP                      :
          :.................................................:
          :  # basis functions                  19          :
          :  # atomic orbitals                  19          :
          :  # shells                           11          :
          :  # electrons                        14          :
          :  max. iterations                   250          :
          :  Hamiltonian                  GFN2-xTB          :
          :  restarted?                      false          :
          :  GBSA solvation                  false          :
          :  PC potential                    false          :
          :  electronic temp.          300.0000000     K    :
          :  accuracy                    1.0000000          :
          :  -> integral cutoff          0.2500000E+02      :
          :  -> integral neglect         0.1000000E-07      :
          :  -> SCF convergence          0.1000000E-05 Eh   :
          :  -> wf. convergence          0.1000000E-03 e    :
          :  Broyden damping             0.4000000          :
          ...................................................

 iter      E             dE          RMSdq      gap      omega  full diag
   1     16.3012286  0.163012E+02  0.276E+01    0.44       0.0  T
   2     -2.3900862 -0.186913E+02  0.216E+01    0.05       1.0  T
   3     -1.8221178  0.567968E+00  0.165E+01    0.14       1.0  T
   4      0.7243340  0.254645E+01  0.203E+01    0.47       1.0  T
   5     -2.5051559 -0.322949E+01  0.136E+01    0.85       1.0  T
   6     -2.5303389 -0.251830E-01  0.141E+01    0.66       1.0  T
   7     -4.4526435 -0.192230E+01  0.151E+01    0.69       1.0  T
   8     -3.6693034  0.783340E+00  0.117E+01    0.79       1.0  T
   9     -3.4429151  0.226388E+00  0.113E+01    0.78       1.0  T
  10     16.6867371  0.201297E+02  0.278E+01    0.39       1.0  T
  11     -4.3721833 -0.210589E+02  0.590E+00    0.41       1.0  T
  12     -4.6070126 -0.234829E+00  0.580E+00    0.52       1.0  T
  13     -3.6692084  0.937804E+00  0.144E+01    0.66       1.0  T
  14     -4.5654314 -0.896223E+00  0.116E+01    0.65       1.0  T
  15     -4.5759051 -0.104737E-01  0.116E+01    0.65       1.0  T
  16     -4.2064989  0.369406E+00  0.131E+01    0.66       1.0  T
  17     -4.2310853 -0.245863E-01  0.129E+01    0.67       1.0  T
  18     -4.0464192  0.184666E+00  0.133E+01    0.68       1.0  T
  19     -4.7198547 -0.673436E+00  0.968E+00    0.65       1.0  T
  20     -4.9324221 -0.212567E+00  0.766E+00    0.58       1.0  T
  21     -4.9319069  0.515202E-03  0.769E+00    0.58       1.0  T
  22     -4.9211602  0.107468E-01  0.774E+00    0.58       1.0  T
  23     -5.0899087 -0.168748E+00  0.521E+00    0.48       1.0  T
  24     -4.9851248  0.104784E+00  0.588E+00    0.55       1.0  T
  25     -5.1187557 -0.133631E+00  0.365E+00    0.32       1.0  T
  26     -5.1542009 -0.354452E-01  0.297E+00    0.39       1.0  T
  27     -5.1546101 -0.409244E-03  0.295E+00    0.39       1.0  T
  28     -5.1549744 -0.364275E-03  0.290E+00    0.40       1.0  T
  29     -5.0641422  0.908322E-01  0.301E+00    0.51       1.0  T
  30     -5.1537578 -0.896157E-01  0.165E+00    0.45       1.0  T
  31     -5.1518948  0.186300E-02  0.140E+00    0.46       1.0  T
  32     -5.1635937 -0.116989E-01  0.205E+00    0.42       1.0  T
  33     -5.1650283 -0.143461E-02  0.190E+00    0.43       1.0  T
  34     -5.1391332  0.258951E-01  0.280E+00    0.41       1.0  T
  35     -5.1355183  0.361486E-02  0.283E+00    0.41       1.0  T
  36     -5.1380161 -0.249774E-02  0.274E+00    0.41       1.0  T
  37     -5.1416775 -0.366143E-02  0.248E+00    0.42       1.0  T
  38     -5.1414779  0.199634E-03  0.237E+00    0.42       1.0  T
  39     -5.1444641 -0.298618E-02  0.210E+00    0.43       1.0  T
  40     -5.1531207 -0.865668E-02  0.181E+00    0.45       1.0  T
  41     -5.1562358 -0.311511E-02  0.171E+00    0.45       1.0  T
  42     -5.1636022 -0.736632E-02  0.144E+00    0.46       1.0  T
  43     -5.1650610 -0.145883E-02  0.133E+00    0.47       1.0  T
  44     -5.1650464  0.146366E-04  0.127E+00    0.47       1.0  T
  45     -5.1658551 -0.808726E-03  0.106E+00    0.48       1.0  T
  46     -5.1667255 -0.870395E-03  0.871E-01    0.48       1.0  T
  47     -5.1671606 -0.435134E-03  0.749E-01    0.48       1.0  T
  48     -5.1673772 -0.216623E-03  0.670E-01    0.48       1.0  T
  49     -5.1675318 -0.154580E-03  0.608E-01    0.48       1.0  T
  50     -5.1676812 -0.149401E-03  0.536E-01    0.48       1.0  T
  51     -5.1678454 -0.164219E-03  0.424E-01    0.48       1.0  T
  52     -5.1679694 -0.123931E-03  0.310E-01    0.48       1.0  T
  53     -5.1680446 -0.752685E-04  0.228E-01    0.48       1.0  T
  54     -5.1680883 -0.436841E-04  0.175E-01    0.48       1.0  T
  55     -5.1681154 -0.270412E-04  0.141E-01    0.48       1.0  T
  56     -5.1681333 -0.179475E-04  0.121E-01    0.48       1.0  T
  57     -5.1681451 -0.117630E-04  0.110E-01    0.48       1.0  T
  58     -5.1681531 -0.800231E-05  0.104E-01    0.48       1.0  T
  59     -5.1681599 -0.681888E-05  0.965E-02    0.48       1.0  T
  60     -5.1681644 -0.446094E-05  0.835E-02    0.48       1.0  T
  61     -5.1681616  0.273798E-05  0.667E-02    0.48       1.0  T
  62     -5.1681575  0.413394E-05  0.511E-02    0.48       1.0  T
  63     -5.1681582 -0.741473E-06  0.373E-02    0.48       1.0  T
  64     -5.1681625 -0.424150E-05  0.250E-02    0.48       1.5  T
  65     -5.1681656 -0.308621E-05  0.138E-02    0.48       2.7  T
  66     -5.1681662 -0.601681E-06  0.585E-03    0.48       6.5  T
  67     -5.1681662 -0.183515E-07  0.230E-03    0.48      16.5  T
  68     -5.1681662  0.964703E-09  0.114E-03    0.48      33.1  T
  69     -5.1681662 -0.980759E-09  0.563E-04    0.48      67.1  T
  70     -5.1681662 -0.121875E-08  0.547E-05    0.48     690.5  T

   *** convergence criteria satisfied after 70 iterations ***

         #    Occupation            Energy/Eh            Energy/eV
      -------------------------------------------------------------
         1        2.0000           -0.5508923             -14.9905
         2        2.0000           -0.3247306              -8.8364
         3        2.0000           -0.2586749              -7.0389
         4        2.0000           -0.2501262              -6.8063
         5        2.0000           -0.2337862              -6.3616
         6        2.0000           -0.2092541              -5.6941
         7        1.9998           -0.1891697              -5.1476 (HOMO)
         8        0.0002           -0.1715062              -4.6669 (LUMO)
         9                         -0.1565208              -4.2591
        10                         -0.1313190              -3.5734
        11                         -0.1121197              -3.0509
        12                         -0.0730966              -1.9891
       ...                                ...                  ...
        19                          0.2292824               6.2391
      -------------------------------------------------------------
                  HL-Gap            0.0176634 Eh            0.4806 eV
             Fermi-level           -0.1803380 Eh           -4.9072 eV

 SCC (total)                   0 d,  0 h,  0 min,  0.014 sec
 SCC setup                      ...        0 min,  0.000 sec (  0.507%)
 Dispersion                     ...        0 min,  0.000 sec (  0.752%)
 classical contributions        ...        0 min,  0.000 sec (  0.547%)
 integral evaluation            ...        0 min,  0.000 sec (  1.791%)
 iterations                     ...        0 min,  0.013 sec ( 92.464%)
 molecular gradient             ...        0 min,  0.000 sec (  3.093%)
 printout                       ...        0 min,  0.000 sec (  0.696%)

         :::::::::::::::::::::::::::::::::::::::::::::::::::::
         ::                     SUMMARY                     ::
         :::::::::::::::::::::::::::::::::::::::::::::::::::::
         :: total energy              -5.129153889485 Eh    ::
         :: gradient norm              0.290171337872 Eh/a0 ::
         :: HOMO-LUMO gap              0.480645966930 eV    ::
         ::.................................................::
         :: SCC energy                -5.168166175660 Eh    ::
         :: -> isotropic ES            0.019713913097 Eh    ::
         :: -> anisotropic ES          0.003019945562 Eh    ::
         :: -> anisotropic XC         -0.017859210880 Eh    ::
         :: -> dispersion             -0.006037787365 Eh    ::
         :: repulsion energy           0.039010904730 Eh    ::
         :: add. restraining           0.000000000000 Eh    ::
         :: total charge              -0.000000000026 e     ::
         :::::::::::::::::::::::::::::::::::::::::::::::::::::

      ----------------------------------------------------------- 
     |                   =====================                   |
     |                        A N C O P T                        |
     |                   =====================                   |
     |               Approximate Normal Coordinate               |
     |                Rational Function Optimizer                |
      ----------------------------------------------------------- 

          ...................................................
          :                      SETUP                      :
          :.................................................:
          :   optimization level            normal          :
          :   max. optcycles                   200          :
          :   ANC micro-cycles                  20          :
          :   degrees of freedom                15          :
          :.................................................:
          :   RF solver                   davidson          :
          :   write xtbopt.log                true          :
          :   linear?                        false          :
          :   energy convergence         0.5000000E-05 Eh   :
          :   grad. convergence          0.1000000E-02 Eh/α :
          :   maximium RF displ.         1.0000000          :
          :   Hlow (freq-cutoff)         0.1000000E-01      :
          :   Hmax (freq-cutoff)         5.0000000          :
          :   S6 in model hess.         20.0000000          :
          ...................................................

generating ANC from model Hessian ...
Using Lindh-Hessian (1995)
 Shifting diagonal of input Hessian by    1.3225023887032381E-002
 Lowest  eigenvalues of input Hessian
    0.010000    0.012544    0.012984    0.000000    0.000000    0.000000
    0.000000    0.000000    0.000000    0.013610    0.019223    0.022657
    0.044162    0.054127    0.100888    0.138924    0.149273    0.180892
 Highest eigenvalues
    0.138924    0.149273    0.180892    0.256131    0.281643    0.372320


........................................................................
.............................. CYCLE    1 ..............................
........................................................................
   1     -5.1681662 -0.516817E+01  0.315E-05    0.48       0.0  T
   2     -5.1681662  0.642293E-09  0.240E-04    0.48     157.8  T
   3     -5.1681662 -0.513522E-09  0.117E-04    0.48     323.2  T
     SCC iter.                  ...        0 min,  0.000 sec
     gradient                   ...        0 min,  0.001 sec
 * total energy  :    -5.1291539 Eh     change        0.1295781E-09 Eh
   gradient norm :     0.2892598 Eh/α   predicted     0.0000000E+00 (-100.00%)
   displ. norm   :     0.8122854 α      lambda       -0.2258856E+00
   maximum displ.:     0.5555938 α      in ANC's #8, #14, #12, ...

........................................................................
.............................. CYCLE    2 ..............................
........................................................................
   1     -5.2861088 -0.528611E+01  0.489E+00    0.57       0.0  T
   2     -5.2356178  0.504910E-01  0.423E+00    0.28       1.0  T
   3     -5.0611565  0.174461E+00  0.602E+00    0.86       1.0  T
   4     -5.3132791 -0.252123E+00  0.192E+00    0.61       1.0  T
   5     -5.2364979  0.767812E-01  0.305E+00    0.39       1.0  T
   6     -5.3032322 -0.667343E-01  0.194E+00    0.56       1.0  T
   7     -5.2947275  0.850466E-02  0.163E+00    0.57       1.0  T
   8     -5.2838801  0.108474E-01  0.214E+00    0.58       1.0  T
   9     -5.2887574 -0.487725E-02  0.192E+00    0.57       1.0  T
  10     -5.3199164 -0.311590E-01  0.234E-01    0.55       1.0  T
  11     -5.3201631 -0.246711E-03  0.183E-01    0.54       1.0  T
  12     -5.3202729 -0.109848E-03  0.203E-01    0.55       1.0  T
  13     -5.3203707 -0.978222E-04  0.619E-02    0.55       1.0  T
  14     -5.3203860 -0.152852E-04  0.228E-02    0.55       1.7  T
  15     -5.3203857  0.356581E-06  0.191E-02    0.55       2.0  T
  16     -5.3203884 -0.276940E-05  0.627E-03    0.55       6.0  T
  17     -5.3203887 -0.251399E-06  0.281E-03    0.55      13.5  T
  18     -5.3203887 -0.497125E-07  0.106E-03    0.55      35.7  T
  19     -5.3203888 -0.831360E-08  0.178E-04    0.55     212.3  T
  20     -5.3203888  0.151327E-09  0.239E-04    0.55     158.2  T
     SCC iter.                  ...        0 min,  0.003 sec
     gradient                   ...        0 min,  0.001 sec
 * total energy  :    -5.3012304 Eh     change       -0.1720765E+00 Eh
   gradient norm :     0.2038873 Eh/α   predicted    -0.1874633E+00 (   8.94%)
   displ. norm   :     0.8890322 α      lambda       -0.1780548E+00
   maximum displ.:     0.4489205 α      in ANC's #12, #14, #7, ...

........................................................................
.............................. CYCLE    3 ..............................
........................................................................
   1     -5.4746859 -0.547469E+01  0.431E+00    1.10       0.0  T
   2     -3.9412822  0.153340E+01  0.120E+01    1.03       1.0  T
   3     -5.3410044 -0.139972E+01  0.423E+00    1.00       1.0  T
   4     -5.3725841 -0.315797E-01  0.362E+00    0.98       1.0  T
   5     -5.3400071  0.325771E-01  0.434E+00    0.87       1.0  T
   6     -5.3613651 -0.213580E-01  0.394E+00    0.90       1.0  T
   7     -5.4750873 -0.113722E+00  0.131E+00    0.99       1.0  T
   8     -5.4949096 -0.198224E-01  0.124E+00    1.10       1.0  T
   9     -5.4842298  0.106798E-01  0.161E+00    1.12       1.0  T
  10     -5.4848689 -0.639084E-03  0.155E+00    1.12       1.0  T
  11     -5.4919292 -0.706026E-02  0.941E-01    1.11       1.0  T
  12     -5.5001545 -0.822535E-02  0.348E-01    1.09       1.0  T
  13     -5.5003582 -0.203720E-03  0.281E-01    1.09       1.0  T
  14     -5.5005082 -0.149976E-03  0.172E-01    1.09       1.0  T
  15     -5.5005289 -0.207071E-04  0.569E-02    1.09       1.0  T
  16     -5.5005317 -0.272360E-05  0.303E-02    1.10       1.2  T
  17     -5.5005363 -0.466064E-05  0.659E-03    1.10       5.7  T
  18     -5.5005364 -0.655352E-07  0.384E-03    1.10       9.8  T
  19     -5.5005365 -0.111008E-06  0.122E-03    1.10      30.9  T
  20     -5.5005365 -0.263376E-08  0.470E-04    1.10      80.4  T
  21     -5.5005365 -0.715321E-10  0.958E-05    1.10     394.5  T
     SCC iter.                  ...        0 min,  0.003 sec
     gradient                   ...        0 min,  0.001 sec
 * total energy  :    -5.4505746 Eh     change       -0.1493442E+00 Eh
   gradient norm :     0.1601575 Eh/α   predicted    -0.1593927E+00 (   6.73%)
   displ. norm   :     0.8718142 α      lambda       -0.1315572E+00
   maximum displ.:     0.4923895 α      in ANC's #14, #7, #2, ...

........................................................................
.............................. CYCLE    4 ..............................
........................................................................
   1     -5.6334336 -0.563343E+01  0.408E+00    1.04       0.0  T
   2     -5.1170066  0.516427E+00  0.592E+00    1.21       1.0  T
   3     -5.2268351 -0.109829E+00  0.625E+00    0.98       1.0  T
   4     -5.4875520 -0.260717E+00  0.412E+00    1.00       1.0  T
   5     -5.5666957 -0.791437E-01  0.272E+00    1.05       1.0  T
   6     -5.6230899 -0.563942E-01  0.168E+00    1.07       1.0  T
   7     -5.6294819 -0.639206E-02  0.151E+00    1.06       1.0  T
   8     -5.6407161 -0.112341E-01  0.108E+00    1.07       1.0  T
   9     -5.6504896 -0.977351E-02  0.312E-01    1.09       1.0  T
  10     -5.6495879  0.901644E-03  0.396E-01    1.09       1.0  T
  11     -5.6511770 -0.158908E-02  0.295E-02    1.09       1.3  T
  12     -5.6511596  0.174490E-04  0.570E-02    1.09       1.0  T
  13     -5.6511870 -0.274516E-04  0.857E-03    1.09       4.4  T
  14     -5.6511871 -0.114072E-06  0.445E-03    1.09       8.5  T
  15     -5.6511873 -0.187306E-06  0.581E-04    1.09      65.1  T
  16     -5.6511873 -0.657021E-09  0.402E-04    1.09      94.0  T
     SCC iter.                  ...        0 min,  0.002 sec
     gradient                   ...        0 min,  0.001 sec
 * total energy  :    -5.5449425 Eh     change       -0.9436792E-01 Eh
   gradient norm :     0.1534019 Eh/α   predicted    -0.1157743E+00 (  22.68%)
   displ. norm   :     0.7930876 α      lambda       -0.1035528E+00
   maximum displ.:     0.5262254 α      in ANC's #14, #2, #10, ...

........................................................................
.............................. CYCLE    5 ..............................
........................................................................
   1     -5.6763225 -0.567632E+01  0.413E+00    0.89       0.0  T
   2     -5.1555640  0.520759E+00  0.688E+00    1.11       1.0  T
   3     -5.5445877 -0.389024E+00  0.352E+00    0.85       1.0  T
   4     -4.9793914  0.565196E+00  0.619E+00    1.03       1.0  T
   5     -5.6882798 -0.708888E+00  0.155E+00    0.92       1.0  T
   6     -5.7021223 -0.138424E-01  0.125E+00    0.90       1.0  T
   7     -5.7051185 -0.299622E-02  0.894E-01    0.91       1.0  T
   8     -5.7020230  0.309543E-02  0.771E-01    0.91       1.0  T
   9     -5.7091192 -0.709615E-02  0.381E-01    0.92       1.0  T
  10     -5.7103639 -0.124468E-02  0.158E-01    0.92       1.0  T
  11     -5.7105736 -0.209690E-03  0.609E-02    0.92       1.0  T
  12     -5.7105785 -0.493878E-05  0.420E-02    0.92       1.0  T
  13     -5.7105759  0.261486E-05  0.216E-02    0.92       1.7  T
  14     -5.7105797 -0.382858E-05  0.976E-03    0.92       3.9  T
  15     -5.7105800 -0.304427E-06  0.400E-03    0.92       9.4  T
  16     -5.7105802 -0.187081E-06  0.195E-03    0.92      19.3  T
  17     -5.7105803 -0.465963E-07  0.523E-04    0.92      72.2  T
  18     -5.7105803 -0.206074E-08  0.108E-04    0.92     348.9  T
     SCC iter.                  ...        0 min,  0.002 sec
     gradient                   ...        0 min,  0.001 sec
 * total energy  :    -5.6016409 Eh     change       -0.5669836E-01 Eh
   gradient norm :     0.1587071 Eh/α   predicted    -0.8434312E-01 (  48.76%)
   displ. norm   :     0.7344149 α      lambda       -0.8874681E-01
   maximum displ.:     0.4005460 α      in ANC's #9, #14, #2, ...

........................................................................
.............................. CYCLE    6 ..............................
........................................................................
   1     -5.7073046 -0.570730E+01  0.285E+00    1.01       0.0  T
   2     -5.6883189  0.189857E-01  0.180E+00    0.99       1.0  T
   3     -4.3796926  0.130863E+01  0.731E+00    1.22       1.0  T
   4     -5.6600964 -0.128040E+01  0.202E+00    1.00       1.0  T
   5     -5.6913542 -0.312577E-01  0.136E+00    1.04       1.0  T
   6     -5.7092933 -0.179391E-01  0.604E-01    1.02       1.0  T
   7     -5.7089157  0.377547E-03  0.402E-01    1.02       1.0  T
   8     -5.7092211 -0.305404E-03  0.294E-01    1.02       1.0  T
   9     -5.7105354 -0.131430E-02  0.135E-01    1.03       1.0  T
  10     -5.7103737  0.161700E-03  0.167E-01    1.03       1.0  T
  11     -5.7107868 -0.413067E-03  0.181E-02    1.03       2.1  T
  12     -5.7107910 -0.425187E-05  0.573E-03    1.03       6.6  T
  13     -5.7107911 -0.775881E-07  0.252E-03    1.03      15.0  T
  14     -5.7107911 -0.323744E-07  0.168E-03    1.03      22.6  T
  15     -5.7107912 -0.189337E-07  0.610E-04    1.03      62.0  T
  16     -5.7107912 -0.343399E-09  0.397E-04    1.03      95.3  T
     SCC iter.                  ...        0 min,  0.002 sec
     gradient                   ...        0 min,  0.000 sec
 * total energy  :    -5.6381789 Eh     change       -0.3653804E-01 Eh
   gradient norm :     0.0800870 Eh/α   predicted    -0.6830688E-01 (  86.95%)
   displ. norm   :     0.6261300 α      lambda       -0.3466428E-01
   maximum displ.:     0.3604855 α      in ANC's #2, #3, #1, ...

........................................................................
.............................. CYCLE    7 ..............................
........................................................................
   1     -5.7361088 -0.573611E+01  0.230E+00    1.31       0.0  T
   2     -5.7213845  0.147244E-01  0.160E+00    1.32       1.0  T
   3     -5.4655982  0.255786E+00  0.413E+00    1.19       1.0  T
   4     -5.7204212 -0.254823E+00  0.117E+00    1.30       1.0  T
   5     -5.7334461 -0.130249E-01  0.773E-01    1.29       1.0  T
   6     -5.7369822 -0.353607E-02  0.254E-01    1.29       1.0  T
   7     -5.7372308 -0.248572E-03  0.255E-01    1.31       1.0  T
   8     -5.7372362 -0.543386E-05  0.192E-01    1.29       1.0  T
   9     -5.7379125 -0.676296E-03  0.225E-02    1.30       1.7  T
  10     -5.7379211 -0.858620E-05  0.619E-03    1.30       6.1  T
  11     -5.7379214 -0.255418E-06  0.227E-03    1.30      16.7  T
  12     -5.7379214 -0.107102E-07  0.583E-04    1.30      64.8  T
  13     -5.7379214 -0.238160E-08  0.301E-04    1.30     125.7  T
     SCC iter.                  ...        0 min,  0.002 sec
     gradient                   ...        0 min,  0.001 sec
 * total energy  :    -5.6519299 Eh     change       -0.1375103E-01 Eh
   gradient norm :     0.0733933 Eh/α   predicted    -0.2412701E-01 (  75.46%)
   displ. norm   :     0.5977108 α      lambda       -0.2468614E-01
   maximum displ.:     0.3580053 α      in ANC's #3, #5, #6, ...

........................................................................
.............................. CYCLE    8 ..............................
........................................................................
   1     -5.6989758 -0.569898E+01  0.262E+00    1.06       0.0  T
   2     -5.6527169  0.462589E-01  0.257E+00    1.01       1.0  T
   3     -5.4004409  0.252276E+00  0.371E+00    1.17       1.0  T
   4     -5.5328458 -0.132405E+00  0.324E+00    0.97       1.0  T
   5     -5.6511661 -0.118320E+00  0.181E+00    1.00       1.0  T
   6     -5.6798924 -0.287263E-01  0.105E+00    1.04       1.0  T
   7     -5.6996482 -0.197558E-01  0.461E-01    1.05       1.0  T
   8     -5.7019431 -0.229496E-02  0.244E-01    1.06       1.0  T
   9     -5.7019795 -0.363479E-04  0.149E-01    1.06       1.0  T
  10     -5.7021213 -0.141796E-03  0.755E-02    1.07       1.0  T
  11     -5.7021809 -0.596154E-04  0.108E-02    1.06       3.5  T
  12     -5.7021828 -0.191317E-05  0.418E-03    1.06       9.0  T
  13     -5.7021829 -0.109956E-06  0.208E-03    1.06      18.2  T
  14     -5.7021830 -0.596974E-07  0.709E-04    1.06      53.3  T
  15     -5.7021830 -0.291047E-08  0.203E-04    1.06     186.3  T
     SCC iter.                  ...        0 min,  0.002 sec
     gradient                   ...        0 min,  0.000 sec
 * total energy  :    -5.6504952 Eh     change        0.1434763E-02 Eh
   gradient norm :     0.1044027 Eh/α   predicted    -0.1675272E-01 (*******%)
   displ. norm   :     0.4365862 α      lambda       -0.2893376E-01
   maximum displ.:     0.2069395 α      in ANC's #4, #8, #1, ...

........................................................................
.............................. CYCLE    9 ..............................
........................................................................
   1     -5.7410310 -0.574103E+01  0.213E+00    1.46       0.0  T
   2     -5.7019355  0.390954E-01  0.268E+00    1.32       1.0  T
   3     -5.7315005 -0.295650E-01  0.144E+00    1.42       1.0  T
   4     -5.7171115  0.143890E-01  0.161E+00    1.38       1.0  T
   5     -5.7239054 -0.679385E-02  0.126E+00    1.44       1.0  T
   6     -5.7451454 -0.212400E-01  0.586E-01    1.36       1.0  T
   7     -5.7490570 -0.391159E-02  0.243E-01    1.39       1.0  T
   8     -5.7494662 -0.409217E-03  0.880E-02    1.39       1.0  T
   9     -5.7496144 -0.148226E-03  0.167E-02    1.39       2.3  T
  10     -5.7496180 -0.354908E-05  0.328E-03    1.39      11.5  T
  11     -5.7496180 -0.182522E-07  0.148E-03    1.39      25.5  T
  12     -5.7496180  0.831424E-09  0.944E-04    1.39      40.0  T
  13     -5.7496180 -0.132171E-07  0.126E-04    1.39     300.2  T
     SCC iter.                  ...        0 min,  0.001 sec
     gradient                   ...        0 min,  0.000 sec
 * total energy  :    -5.6654071 Eh     change       -0.1491196E-01 Eh
   gradient norm :     0.0407523 Eh/α   predicted    -0.1722437E-01 (  15.51%)
   displ. norm   :     0.4487744 α      lambda       -0.1116588E-01
   maximum displ.:     0.2133037 α      in ANC's #2, #1, #3, ...

........................................................................
.............................. CYCLE   10 ..............................
........................................................................
   1     -5.7483506 -0.574835E+01  0.196E+00    1.54       0.0  T
   2     -5.6984161  0.499345E-01  0.196E+00    1.62       1.0  T
   3     -5.6409836  0.574325E-01  0.286E+00    1.50       1.0  T
   4     -5.7234128 -0.824292E-01  0.169E+00    1.59       1.0  T
   5     -5.7321253 -0.871247E-02  0.107E+00    1.49       1.0  T
   6     -5.7502512 -0.181259E-01  0.375E-01    1.55       1.0  T
   7     -5.7524693 -0.221812E-02  0.206E-01    1.55       1.0  T
   8     -5.7526534 -0.184068E-03  0.946E-02    1.56       1.0  T
   9     -5.7527573 -0.103978E-03  0.463E-02    1.56       1.0  T
  10     -5.7527698 -0.124462E-04  0.763E-03    1.56       5.0  T
  11     -5.7527694  0.391418E-06  0.540E-03    1.56       7.0  T
  12     -5.7527699 -0.478742E-06  0.750E-04    1.56      50.4  T
  13     -5.7527699 -0.272137E-08  0.514E-04    1.56      73.6  T
     SCC iter.                  ...        0 min,  0.002 sec
     gradient                   ...        0 min,  0.000 sec
 * total energy  :    -5.6696457 Eh     change       -0.4238562E-02 Eh
   gradient norm :     0.0389948 Eh/α   predicted    -0.6707337E-02 (  58.25%)
   displ. norm   :     0.5373072 α      lambda       -0.1550108E-01
   maximum displ.:     0.2217769 α      in ANC's #6, #7, #3, ...

........................................................................
.............................. CYCLE   11 ..............................
........................................................................
   1     -5.7445630 -0.574456E+01  0.276E+00    1.62       0.0  T
   2     -5.6472233  0.973397E-01  0.345E+00    1.46       1.0  T
   3     -5.6838365 -0.366132E-01  0.224E+00    1.61       1.0  T
   4     -5.5489921  0.134844E+00  0.370E+00    1.48       1.0  T
   5     -5.7192547 -0.170263E+00  0.155E+00    1.53       1.0  T
   6     -5.7516937 -0.324390E-01  0.685E-01    1.50       1.0  T
   7     -5.7555776 -0.388382E-02  0.478E-01    1.52       1.0  T
   8     -5.7557201 -0.142573E-03  0.336E-01    1.52       1.0  T
   9     -5.7575964 -0.187623E-02  0.348E-02    1.54       1.1  T
  10     -5.7575979 -0.151497E-05  0.184E-02    1.54       2.0  T
  11     -5.7575997 -0.182189E-05  0.635E-03    1.54       5.9  T
  12     -5.7576000 -0.299835E-06  0.137E-03    1.54      27.6  T
  13     -5.7576000 -0.759539E-08  0.666E-04    1.54      56.7  T
  14     -5.7576000  0.241871E-09  0.174E-04    1.54     216.9  T
     SCC iter.                  ...        0 min,  0.002 sec
     gradient                   ...        0 min,  0.000 sec
 * total energy  :    -5.6565717 Eh     change        0.1307401E-01 Eh
   gradient norm :     0.1515221 Eh/α   predicted    -0.9988112E-02 (-176.40%)
   displ. norm   :     0.3583752 α      lambda       -0.4213947E-01
   maximum displ.:     0.1825627 α      in ANC's #4, #3, #14, ...

........................................................................
.............................. CYCLE   12 ..............................
........................................................................
   1     -5.7480410 -0.574804E+01  0.123E+00    1.63       0.0  T
   2     -5.7312182  0.168228E-01  0.166E+00    1.65       1.0  T
   3     -5.7483311 -0.171129E-01  0.757E-01    1.63       1.0  T
   4     -5.7474155  0.915654E-03  0.451E-01    1.65       1.0  T
   5     -5.7467083  0.707159E-03  0.485E-01    1.62       1.0  T
   6     -5.7504927 -0.378438E-02  0.856E-02    1.63       1.0  T
   7     -5.7505696 -0.768487E-04  0.361E-02    1.63       1.0  T
   8     -5.7505728 -0.320042E-05  0.155E-02    1.63       2.4  T
   9     -5.7505715  0.123509E-05  0.148E-02    1.63       2.6  T
  10     -5.7505749 -0.337539E-05  0.176E-03    1.63      21.5  T
  11     -5.7505749 -0.215271E-08  0.988E-04    1.63      38.3  T
  12     -5.7505749 -0.341247E-08  0.113E-04    1.63     333.3  T
     SCC iter.                  ...        0 min,  0.002 sec
     gradient                   ...        0 min,  0.000 sec
 * total energy  :    -5.6761400 Eh     change       -0.1956828E-01 Eh
   gradient norm :     0.0428981 Eh/α   predicted    -0.2377579E-01 (  21.50%)
   displ. norm   :     0.3333083 α      lambda       -0.7612560E-02
   maximum displ.:     0.1934244 α      in ANC's #5, #1, #6, ...

........................................................................
.............................. CYCLE   13 ..............................
........................................................................
   1     -5.7679847 -0.576798E+01  0.132E+00    1.98       0.0  T
   2     -5.7614100  0.657468E-02  0.122E+00    1.84       1.0  T
   3     -5.7603457  0.106430E-02  0.107E+00    1.91       1.0  T
   4     -5.7463378  0.140079E-01  0.111E+00    1.97       1.0  T
   5     -5.7585452 -0.122074E-01  0.833E-01    1.89       1.0  T
   6     -5.7698435 -0.112983E-01  0.210E-01    1.89       1.0  T
   7     -5.7703790 -0.535464E-03  0.721E-02    1.90       1.0  T
   8     -5.7704194 -0.403889E-04  0.183E-02    1.90       2.1  T
   9     -5.7704204 -0.106515E-05  0.741E-03    1.90       5.1  T
  10     -5.7704209 -0.512702E-06  0.172E-03    1.90      22.0  T
  11     -5.7704210 -0.111102E-07  0.110E-03    1.90      34.5  T
  12     -5.7704210 -0.695009E-08  0.151E-04    1.90     250.1  T
  13     -5.7704210  0.289513E-09  0.147E-04    1.90     257.4  T
     SCC iter.                  ...        0 min,  0.001 sec
     gradient                   ...        0 min,  0.000 sec
 * total energy  :    -5.6797270 Eh     change       -0.3587070E-02 Eh
   gradient norm :     0.0387357 Eh/α   predicted    -0.4229136E-02 (  17.90%)
   displ. norm   :     0.5929340 α      lambda       -0.8482981E-02
   maximum displ.:     0.3232969 α      in ANC's #3, #5, #8, ...

........................................................................
.............................. CYCLE   14 ..............................
........................................................................
   1     -5.7603354 -0.576034E+01  0.314E+00    1.96       0.0  T
   2     -5.7417599  0.185755E-01  0.217E+00    1.87       1.0  T
   3     -5.6725617  0.691982E-01  0.362E+00    1.98       1.0  T
   4     -5.7105480 -0.379863E-01  0.162E+00    1.91       1.0  T
   5     -5.7307734 -0.202254E-01  0.150E+00    1.90       1.0  T
   6     -5.7633651 -0.325918E-01  0.505E-01    1.88       1.0  T
   7     -5.7641136 -0.748481E-03  0.379E-01    1.89       1.0  T
   8     -5.7653456 -0.123198E-02  0.929E-02    1.91       1.0  T
   9     -5.7653972 -0.515661E-04  0.365E-02    1.91       1.0  T
  10     -5.7654063 -0.914386E-05  0.983E-03    1.91       3.8  T
  11     -5.7654062  0.779416E-07  0.539E-03    1.91       7.0  T
  12     -5.7654065 -0.303005E-06  0.113E-03    1.91      33.3  T
  13     -5.7654065 -0.386176E-09  0.357E-04    1.91     105.8  T
  14     -5.7654065 -0.117288E-08  0.147E-04    1.91     256.7  T
     SCC iter.                  ...        0 min,  0.001 sec
     gradient                   ...        0 min,  0.000 sec
 * total energy  :    -5.6842278 Eh     change       -0.4500752E-02 Eh
   gradient norm :     0.0390368 Eh/α   predicted    -0.5732678E-02 (  27.37%)
   displ. norm   :     0.4095620 α      lambda       -0.5787108E-02
   maximum displ.:     0.2737484 α      in ANC's #3, #1, #4, ...

........................................................................
.............................. CYCLE   15 ..............................
........................................................................
   1     -5.7666458 -0.576665E+01  0.167E+00    2.06       0.0  T
   2     -5.7630085  0.363724E-02  0.125E+00    2.02       1.0  T
   3     -5.7249750  0.380336E-01  0.192E+00    2.07       1.0  T
   4     -5.7235534  0.142158E-02  0.155E+00    2.00       1.0  T
   5     -5.7663034 -0.427500E-01  0.299E-01    2.03       1.0  T
   6     -5.7672344 -0.931011E-03  0.131E-01    2.03       1.0  T
   7     -5.7672975 -0.630980E-04  0.896E-02    2.04       1.0  T
   8     -5.7672723  0.251630E-04  0.706E-02    2.03       1.0  T
   9     -5.7673406 -0.682965E-04  0.213E-02    2.04       1.8  T
  10     -5.7673470 -0.639292E-05  0.969E-03    2.04       3.9  T
  11     -5.7673477 -0.685081E-06  0.416E-03    2.04       9.1  T
  12     -5.7673480 -0.266504E-06  0.374E-04    2.04     101.1  T
  13     -5.7673480 -0.810753E-09  0.154E-04    2.04     244.8  T
     SCC iter.                  ...        0 min,  0.002 sec
     gradient                   ...        0 min,  0.001 sec
 * total energy  :    -5.6851952 Eh     change       -0.9674467E-03 Eh
   gradient norm :     0.0414161 Eh/α   predicted    -0.3378921E-02 ( 249.26%)
   displ. norm   :     0.3396669 α      lambda       -0.6925669E-02
   maximum displ.:     0.1898614 α      in ANC's #5, #3, #10, ...

........................................................................
.............................. CYCLE   16 ..............................
........................................................................
   1     -5.7770330 -0.577703E+01  0.116E+00    2.06       0.0  T
   2     -5.7755647  0.146831E-02  0.784E-01    2.11       1.0  T
   3     -5.7464126  0.291521E-01  0.146E+00    2.06       1.0  T
   4     -5.7536961 -0.728347E-02  0.109E+00    1.99       1.0  T
   5     -5.7767986 -0.231025E-01  0.306E-01    2.08       1.0  T
   6     -5.7773348 -0.536269E-03  0.123E-01    2.09       1.0  T
   7     -5.7774094 -0.745794E-04  0.910E-02    2.09       1.0  T
   8     -5.7774273 -0.178597E-04  0.248E-02    2.08       1.5  T
   9     -5.7774373 -0.998967E-05  0.103E-02    2.08       3.7  T
  10     -5.7774377 -0.420123E-06  0.371E-03    2.08      10.2  T
  11     -5.7774378 -0.120420E-06  0.178E-03    2.08      21.2  T
  12     -5.7774379 -0.507093E-07  0.203E-04    2.08     185.9  T
  13     -5.7774379 -0.101029E-09  0.957E-05    2.08     395.1  T
     SCC iter.                  ...        0 min,  0.001 sec
     gradient                   ...        0 min,  0.000 sec
 * total energy  :    -5.6867037 Eh     change       -0.1508477E-02 Eh
   gradient norm :     0.0341960 Eh/α   predicted    -0.3862356E-02 ( 156.04%)
   displ. norm   :     0.2123253 α      lambda       -0.3915374E-02
   maximum displ.:     0.1343687 α      in ANC's #5, #3, #11, ...

........................................................................
.............................. CYCLE   17 ..............................
........................................................................
   1     -5.7778738 -0.577787E+01  0.109E+00    2.06       0.0  T
   2     -5.7740389  0.383497E-02  0.784E-01    2.03       1.0  T
   3     -5.7611950  0.128438E-01  0.135E+00    2.03       1.0  T
   4     -5.7558517  0.534334E-02  0.103E+00    2.06       1.0  T
   5     -5.7767042 -0.208526E-01  0.378E-01    2.06       1.0  T
   6     -5.7786255 -0.192125E-02  0.120E-01    2.03       1.0  T
   7     -5.7787309 -0.105471E-03  0.544E-02    2.04       1.0  T
   8     -5.7787394 -0.849227E-05  0.165E-02    2.04       2.3  T
   9     -5.7787403 -0.824584E-06  0.471E-03    2.04       8.0  T
  10     -5.7787403 -0.732774E-07  0.156E-03    2.04      24.2  T
  11     -5.7787403  0.273110E-08  0.102E-03    2.04      36.9  T
  12     -5.7787404 -0.158294E-07  0.213E-04    2.04     177.1  T
  13     -5.7787404 -0.615720E-09  0.326E-05    2.04    1158.9  T
     SCC iter.                  ...        0 min,  0.002 sec
     gradient                   ...        0 min,  0.000 sec
 * total energy  :    -5.6885883 Eh     change       -0.1884610E-02 Eh
   gradient norm :     0.0201263 Eh/α   predicted    -0.2045943E-02 (   8.56%)
   displ. norm   :     0.3116753 α      lambda       -0.2894267E-02
   maximum displ.:     0.1831902 α      in ANC's #3, #1, #6, ...

........................................................................
.............................. CYCLE   18 ..............................
........................................................................
   1     -5.7625184 -0.576252E+01  0.162E+00    1.91       0.0  T
   2     -5.7344605  0.280580E-01  0.203E+00    1.85       1.0  T
   3     -5.7499355 -0.154751E-01  0.116E+00    1.96       1.0  T
   4     -5.6511375  0.987980E-01  0.259E+00    1.79       1.0  T
   5     -5.7562385 -0.105101E+00  0.764E-01    1.84       1.0  T
   6     -5.7655241 -0.928556E-02  0.272E-01    1.89       1.0  T
   7     -5.7664900 -0.965923E-03  0.115E-01    1.89       1.0  T
   8     -5.7665520 -0.620278E-04  0.316E-02    1.90       1.2  T
   9     -5.7665593 -0.722720E-05  0.140E-02    1.90       2.7  T
  10     -5.7665607 -0.144421E-05  0.541E-03    1.90       7.0  T
  11     -5.7665611 -0.401080E-06  0.101E-03    1.90      37.4  T
  12     -5.7665611 -0.679537E-08  0.218E-04    1.90     173.8  T
  13     -5.7665611  0.942979E-10  0.123E-04    1.90     306.3  T
     SCC iter.                  ...        0 min,  0.001 sec
     gradient                   ...        0 min,  0.000 sec
 * total energy  :    -5.6874992 Eh     change        0.1089145E-02 Eh
   gradient norm :     0.0331771 Eh/α   predicted    -0.1587711E-02 (-245.78%)
   displ. norm   :     0.2046635 α      lambda       -0.4676123E-02
   maximum displ.:     0.1236130 α      in ANC's #1, #4, #6, ...

........................................................................
.............................. CYCLE   19 ..............................
........................................................................
   1     -5.7742120 -0.577421E+01  0.100E+00    2.01       0.0  T
   2     -5.7667886  0.742346E-02  0.104E+00    2.06       1.0  T
   3     -5.7672756 -0.487000E-03  0.844E-01    1.99       1.0  T
   4     -5.7289997  0.382759E-01  0.155E+00    1.99       1.0  T
   5     -5.7755232 -0.465235E-01  0.980E-02    2.02       1.0  T
   6     -5.7755085  0.147464E-04  0.728E-02    2.02       1.0  T
   7     -5.7755580 -0.495495E-04  0.216E-02    2.02       1.7  T
   8     -5.7755594 -0.142022E-05  0.136E-02    2.02       2.8  T
   9     -5.7755599 -0.465689E-06  0.867E-03    2.02       4.4  T
  10     -5.7755607 -0.759677E-06  0.799E-04    2.02      47.3  T
  11     -5.7755607 -0.680698E-09  0.362E-04    2.02     104.5  T
     SCC iter.                  ...        0 min,  0.001 sec
     gradient                   ...        0 min,  0.000 sec
 * total energy  :    -5.6900739 Eh     change       -0.2574776E-02 Eh
   gradient norm :     0.0155769 Eh/α   predicted    -0.2435998E-02 (  -5.39%)
   displ. norm   :     0.1620139 α      lambda       -0.1174136E-02
   maximum displ.:     0.0838332 α      in ANC's #2, #7, #4, ...

........................................................................
.............................. CYCLE   20 ..............................
........................................................................
   1     -5.7785010 -0.577850E+01  0.673E-01    2.03       0.0  T
   2     -5.7784209  0.801004E-04  0.439E-01    2.01       1.0  T
   3     -5.7748654  0.355553E-02  0.514E-01    2.05       1.0  T
   4     -5.7743864  0.478952E-03  0.483E-01    2.02       1.0  T
   5     -5.7784343 -0.404788E-02  0.118E-01    2.02       1.0  T
   6     -5.7784941 -0.598062E-04  0.714E-02    2.01       1.0  T
   7     -5.7785612 -0.670352E-04  0.134E-02    2.02       2.8  T
   8     -5.7785610  0.150590E-06  0.822E-03    2.02       4.6  T
   9     -5.7785619 -0.903377E-06  0.186E-03    2.02      20.3  T
  10     -5.7785619 -0.206098E-07  0.687E-04    2.02      55.0  T
  11     -5.7785619 -0.187980E-08  0.190E-04    2.02     198.5  T
     SCC iter.                  ...        0 min,  0.001 sec
     gradient                   ...        0 min,  0.000 sec
 * total energy  :    -5.6907608 Eh     change       -0.6868497E-03 Eh
   gradient norm :     0.0122262 Eh/α   predicted    -0.6024773E-03 ( -12.28%)
   displ. norm   :     0.3316690 α      lambda       -0.1658307E-02
   maximum displ.:     0.1691112 α      in ANC's #3, #10, #7, ...
 * RMSD in coord.:     1.7390303 α      energy gain  -0.5616069E+00 Eh

generating ANC from model Hessian ...
Using Lindh-Hessian (1995)
 Shifting diagonal of input Hessian by    5.9045398670067167E-003
 Lowest  eigenvalues of input Hessian
    0.000000    0.000000    0.000000    0.000000    0.000000    0.000000
    0.010000    0.014280    0.019088    0.034162    0.051253    0.065247
    0.091383    0.162071    0.214029    0.306474    0.399130    0.597082
 Highest eigenvalues
    0.306474    0.399130    0.597082    0.767523    0.780551    1.217366


........................................................................
.............................. CYCLE   21 ..............................
........................................................................
   1     -5.7778375 -0.577784E+01  0.141E+00    2.02       0.0  T
   2     -5.7777793  0.581842E-04  0.927E-01    2.03       1.0  T
   3     -5.7648312  0.129480E-01  0.902E-01    2.00       1.0  T
   4     -5.7712363 -0.640506E-02  0.589E-01    1.98       1.0  T
   5     -5.7774648 -0.622850E-02  0.179E-01    2.02       1.0  T
   6     -5.7778947 -0.429871E-03  0.549E-02    2.02       1.0  T
   7     -5.7779004 -0.571813E-05  0.494E-02    2.03       1.0  T
   8     -5.7779156 -0.151899E-04  0.200E-02    2.03       1.9  T
   9     -5.7779202 -0.460821E-05  0.541E-03    2.03       7.0  T
  10     -5.7779204 -0.248243E-06  0.130E-03    2.03      29.0  T
  11     -5.7779205 -0.245238E-08  0.422E-04    2.03      89.5  T
  12     -5.7779205 -0.121159E-08  0.189E-04    2.03     199.7  T
     SCC iter.                  ...        0 min,  0.001 sec
     gradient                   ...        0 min,  0.000 sec
 * total energy  :    -5.6918732 Eh     change       -0.1112434E-02 Eh
   gradient norm :     0.0128271 Eh/α   predicted     0.0000000E+00 (-100.00%)
   displ. norm   :     0.3387564 α      lambda       -0.2247302E-02
   maximum displ.:     0.2985073 α      in ANC's #1, #4, #5, ...

........................................................................
.............................. CYCLE   22 ..............................
........................................................................
   1     -5.7786187 -0.577862E+01  0.156E+00    1.97       0.0  T
   2     -5.7785380  0.806955E-04  0.102E+00    1.98       1.0  T
   3     -5.7686170  0.992102E-02  0.856E-01    1.95       1.0  T
   4     -5.7754655 -0.684856E-02  0.413E-01    1.98       1.0  T
   5     -5.7776985 -0.223297E-02  0.248E-01    1.96       1.0  T
   6     -5.7786472 -0.948745E-03  0.105E-01    1.99       1.0  T
   7     -5.7787152 -0.679507E-04  0.326E-02    1.98       1.2  T
   8     -5.7787230 -0.784838E-05  0.719E-03    1.98       5.3  T
   9     -5.7787232 -0.110708E-06  0.309E-03    1.98      12.2  T
  10     -5.7787232 -0.759958E-08  0.117E-03    1.98      32.2  T
  11     -5.7787232 -0.613943E-08  0.371E-04    1.98     102.0  T
  12     -5.7787232 -0.505525E-09  0.140E-04    1.98     269.9  T
     SCC iter.                  ...        0 min,  0.001 sec
     gradient                   ...        0 min,  0.000 sec
 * total energy  :    -5.6932122 Eh     change       -0.1338954E-02 Eh
   gradient norm :     0.0112490 Eh/α   predicted    -0.1252596E-02 (  -6.45%)
   displ. norm   :     0.1980711 α      lambda       -0.7000939E-03
   maximum displ.:     0.1632987 α      in ANC's #1, #2, #5, ...

........................................................................
.............................. CYCLE   23 ..............................
........................................................................
   1     -5.7789095 -0.577891E+01  0.109E+00    1.95       0.0  T
   2     -5.7779445  0.965064E-03  0.784E-01    1.96       1.0  T
   3     -5.7161414  0.618030E-01  0.174E+00    1.80       1.0  T
   4     -5.7672618 -0.511203E-01  0.779E-01    1.90       1.0  T
   5     -5.7784547 -0.111929E-01  0.195E-01    1.94       1.0  T
   6     -5.7789191 -0.464416E-03  0.114E-01    1.96       1.0  T
   7     -5.7790309 -0.111762E-03  0.601E-02    1.96       1.0  T
   8     -5.7790624 -0.314665E-04  0.120E-02    1.96       3.1  T
   9     -5.7790644 -0.199914E-05  0.327E-03    1.96      11.6  T
  10     -5.7790644 -0.461744E-07  0.166E-03    1.96      22.7  T
  11     -5.7790644 -0.340297E-07  0.293E-04    1.96     128.9  T
  12     -5.7790644 -0.170267E-09  0.707E-05    1.96     535.0  T
     SCC iter.                  ...        0 min,  0.002 sec
     gradient                   ...        0 min,  0.000 sec
 * total energy  :    -5.6936084 Eh     change       -0.3961897E-03 Eh
   gradient norm :     0.0132403 Eh/α   predicted    -0.3637798E-03 (  -8.18%)
   displ. norm   :     0.1601642 α      lambda       -0.5834192E-03
   maximum displ.:     0.0866531 α      in ANC's #3, #1, #2, ...

........................................................................
.............................. CYCLE   24 ..............................
........................................................................
   1     -5.7818579 -0.578186E+01  0.749E-01    1.98       0.0  T
   2     -5.7811619  0.696003E-03  0.524E-01    2.01       1.0  T
   3     -5.7397395  0.414223E-01  0.145E+00    1.90       1.0  T
   4     -5.7813552 -0.416157E-01  0.229E-01    1.96       1.0  T
   5     -5.7817157 -0.360505E-03  0.114E-01    1.99       1.0  T
   6     -5.7819155 -0.199814E-03  0.445E-02    1.99       1.0  T
   7     -5.7819219 -0.640375E-05  0.345E-02    1.99       1.1  T
   8     -5.7819307 -0.873984E-05  0.618E-03    1.99       6.1  T
   9     -5.7819306  0.391869E-07  0.369E-03    1.99      10.3  T
  10     -5.7819307 -0.540247E-07  0.160E-03    1.99      23.6  T
  11     -5.7819307 -0.165099E-07  0.411E-04    1.99      91.9  T
  12     -5.7819307 -0.163416E-08  0.135E-04    1.99     279.6  T
     SCC iter.                  ...        0 min,  0.001 sec
     gradient                   ...        0 min,  0.000 sec
 * total energy  :    -5.6939580 Eh     change       -0.3495745E-03 Eh
   gradient norm :     0.0084102 Eh/α   predicted    -0.2991915E-03 ( -14.41%)
   displ. norm   :     0.0841353 α      lambda       -0.2772470E-03
   maximum displ.:     0.0613552 α      in ANC's #1, #2, #12, ...

........................................................................
.............................. CYCLE   25 ..............................
........................................................................
   1     -5.7834235 -0.578342E+01  0.456E-01    1.99       0.0  T
   2     -5.7833024  0.121123E-03  0.322E-01    1.99       1.0  T
   3     -5.7736413  0.966111E-02  0.700E-01    1.98       1.0  T
   4     -5.7818698 -0.822849E-02  0.280E-01    1.96       1.0  T
   5     -5.7833681 -0.149830E-02  0.738E-02    1.99       1.0  T
   6     -5.7834214 -0.533679E-04  0.422E-02    1.99       1.0  T
   7     -5.7834420 -0.206117E-04  0.132E-02    1.99       2.9  T
   8     -5.7834424 -0.338574E-06  0.341E-03    1.99      11.1  T
   9     -5.7834425 -0.893322E-07  0.133E-03    1.99      28.5  T
  10     -5.7834425 -0.921174E-08  0.199E-04    1.99     190.4  T
  11     -5.7834425  0.331806E-10  0.144E-04    1.99     262.7  T
     SCC iter.                  ...        0 min,  0.001 sec
     gradient                   ...        0 min,  0.001 sec
 * total energy  :    -5.6941400 Eh     change       -0.1820495E-03 Eh
   gradient norm :     0.0036433 Eh/α   predicted    -0.1396032E-03 ( -23.32%)
   displ. norm   :     0.2343229 α      lambda       -0.2861454E-03
   maximum displ.:     0.2055425 α      in ANC's #1, #2, #12, ...

........................................................................
.............................. CYCLE   26 ..............................
........................................................................
   1     -5.7787566 -0.577876E+01  0.126E+00    1.93       0.0  T
   2     -5.7781845  0.572091E-03  0.860E-01    1.93       1.0  T
   3     -5.7154818  0.627027E-01  0.178E+00    1.72       1.0  T
   4     -5.7699616 -0.544798E-01  0.682E-01    1.91       1.0  T
   5     -5.7785669 -0.860530E-02  0.138E-01    1.92       1.0  T
   6     -5.7788166 -0.249688E-03  0.805E-02    1.93       1.0  T
   7     -5.7788425 -0.259105E-04  0.502E-02    1.93       1.0  T
   8     -5.7788596 -0.171358E-04  0.674E-03    1.93       5.6  T
   9     -5.7788600 -0.396315E-06  0.295E-03    1.93      12.8  T
  10     -5.7788601 -0.511060E-07  0.118E-03    1.93      32.1  T
  11     -5.7788601 -0.141839E-07  0.395E-04    1.93      95.7  T
  12     -5.7788601 -0.143570E-08  0.794E-05    1.93     475.8  T
     SCC iter.                  ...        0 min,  0.001 sec
     gradient                   ...        0 min,  0.000 sec
 * total energy  :    -5.6941011 Eh     change        0.3890561E-04 Eh
   gradient norm :     0.0129958 Eh/α   predicted    -0.1509285E-03 (-487.93%)
   displ. norm   :     0.1076606 α      lambda       -0.3717106E-03
   maximum displ.:     0.0897052 α      in ANC's #1, #2, #7, ...

........................................................................
.............................. CYCLE   27 ..............................
........................................................................
   1     -5.7828284 -0.578283E+01  0.571E-01    1.98       0.0  T
   2     -5.7824721  0.356319E-03  0.420E-01    1.97       1.0  T
   3     -5.7743614  0.811075E-02  0.741E-01    1.95       1.0  T
   4     -5.7773858 -0.302445E-02  0.511E-01    1.98       1.0  T
   5     -5.7828757 -0.548986E-02  0.544E-02    1.98       1.0  T
   6     -5.7828950 -0.193499E-04  0.264E-02    1.97       1.4  T
   7     -5.7828915  0.348153E-05  0.218E-02    1.97       1.7  T
   8     -5.7828977 -0.619820E-05  0.393E-03    1.97       9.6  T
   9     -5.7828978 -0.889625E-07  0.128E-03    1.97      29.5  T
  10     -5.7828978 -0.131924E-07  0.322E-04    1.97     117.2  T
  11     -5.7828978 -0.135487E-08  0.813E-05    1.97     464.6  T
     SCC iter.                  ...        0 min,  0.001 sec
     gradient                   ...        0 min,  0.000 sec
 * total energy  :    -5.6942590 Eh     change       -0.1579268E-03 Eh
   gradient norm :     0.0014599 Eh/α   predicted    -0.1880078E-03 (  19.05%)
   displ. norm   :     0.0531024 α      lambda       -0.2313688E-04
   maximum displ.:     0.0379720 α      in ANC's #1, #2, #12, ...

........................................................................
.............................. CYCLE   28 ..............................
........................................................................
   1     -5.7826937 -0.578269E+01  0.292E-01    1.97       0.0  T
   2     -5.7826785  0.151087E-04  0.196E-01    1.97       1.0  T
   3     -5.7799524  0.272615E-02  0.367E-01    1.96       1.0  T
   4     -5.7826266 -0.267422E-02  0.593E-02    1.96       1.0  T
   5     -5.7826959 -0.693085E-04  0.139E-02    1.97       2.7  T
   6     -5.7826948  0.116934E-05  0.156E-02    1.97       2.4  T
   7     -5.7826966 -0.186557E-05  0.360E-03    1.97      10.5  T
   8     -5.7826968 -0.131005E-06  0.976E-04    1.97      38.7  T
   9     -5.7826968 -0.404083E-08  0.463E-04    1.97      81.6  T
     SCC iter.                  ...        0 min,  0.001 sec
     gradient                   ...        0 min,  0.000 sec
 * total energy  :    -5.6942855 Eh     change       -0.2648551E-04 Eh
   gradient norm :     0.0015519 Eh/α   predicted    -0.1158329E-04 ( -56.27%)
   displ. norm   :     0.0881160 α      lambda       -0.2926010E-04
   maximum displ.:     0.0714663 α      in ANC's #1, #2, #12, ...

........................................................................
.............................. CYCLE   29 ..............................
........................................................................
   1     -5.7828550 -0.578286E+01  0.480E-01    1.97       0.0  T
   2     -5.7828540  0.100044E-05  0.316E-01    1.98       1.0  T
   3     -5.7825596  0.294445E-03  0.167E-01    1.96       1.0  T
   4     -5.7828187 -0.259165E-03  0.541E-02    1.97       1.0  T
   5     -5.7828259 -0.712584E-05  0.452E-02    1.98       1.0  T
   6     -5.7828469 -0.210243E-04  0.295E-02    1.98       1.3  T
   7     -5.7828609 -0.140136E-04  0.456E-03    1.97       8.3  T
   8     -5.7828610 -0.889767E-07  0.136E-03    1.98      27.8  T
   9     -5.7828610 -0.600525E-08  0.552E-04    1.98      68.5  T
  10     -5.7828610 -0.434482E-09  0.140E-04    1.98     269.7  T
     SCC iter.                  ...        0 min,  0.001 sec
     gradient                   ...        0 min,  0.000 sec
 * total energy  :    -5.6943088 Eh     change       -0.2333740E-04 Eh
   gradient norm :     0.0017564 Eh/α   predicted    -0.1467926E-04 ( -37.10%)
   displ. norm   :     0.0183304 α      lambda       -0.7347011E-05
   maximum displ.:     0.0129445 α      in ANC's #2, #3, #7, ...

........................................................................
.............................. CYCLE   30 ..............................
........................................................................
   1     -5.7832872 -0.578329E+01  0.737E-02    1.98       0.0  T
   2     -5.7832840  0.319616E-05  0.509E-02    1.98       1.0  T
   3     -5.7832250  0.589714E-04  0.773E-02    1.98       1.0  T
   4     -5.7832683 -0.433117E-04  0.314E-02    1.98       1.2  T
   5     -5.7832878 -0.194746E-04  0.630E-03    1.98       6.0  T
   6     -5.7832880 -0.214919E-06  0.395E-03    1.98       9.6  T
   7     -5.7832880 -0.221713E-07  0.232E-03    1.98      16.3  T
   8     -5.7832881 -0.555888E-07  0.488E-04    1.98      77.5  T
   9     -5.7832881 -0.158366E-08  0.116E-04    1.98     325.9  T
     SCC iter.                  ...        0 min,  0.001 sec
     gradient                   ...        0 min,  0.000 sec
 * total energy  :    -5.6943136 Eh     change       -0.4709869E-05 Eh
   gradient norm :     0.0011054 Eh/α   predicted    -0.3673576E-05 ( -22.00%)
   displ. norm   :     0.0118846 α      lambda       -0.2937041E-05
   maximum displ.:     0.0092656 α      in ANC's #1, #2, #4, ...

........................................................................
.............................. CYCLE   31 ..............................
........................................................................
   1     -5.7833723 -0.578337E+01  0.441E-02    1.99       0.0  T
   2     -5.7833706  0.168882E-05  0.295E-02    1.99       1.3  T
   3     -5.7832873  0.832722E-04  0.619E-02    1.98       1.0  T
   4     -5.7833625 -0.751855E-04  0.274E-02    1.99       1.4  T
   5     -5.7833726 -0.100503E-04  0.436E-03    1.99       8.7  T
   6     -5.7833726 -0.575195E-07  0.323E-03    1.99      11.7  T
   7     -5.7833727 -0.746286E-07  0.115E-03    1.99      32.9  T
   8     -5.7833727 -0.103814E-07  0.281E-04    1.99     134.3  T
   9     -5.7833727 -0.224222E-09  0.113E-04    1.99     333.9  T
     SCC iter.                  ...        0 min,  0.001 sec
     gradient                   ...        0 min,  0.000 sec
 * total energy  :    -5.6943155 Eh     change       -0.1986591E-05 Eh
   gradient norm :     0.0005368 Eh/α   predicted    -0.1469531E-05 ( -26.03%)
   displ. norm   :     0.0048515 α      lambda       -0.9638161E-06
   maximum displ.:     0.0023758 α      in ANC's #1, #5, #9, ...

   *** GEOMETRY OPTIMIZATION CONVERGED AFTER 31 ITERATIONS ***

------------------------------------------------------------------------
 total energy gain   :        -0.5651617 Eh     -354.6443 kcal/mol
 total RMSD          :         1.9178929 a0        1.0149 Å
 total power (kW/mol):       -47.8655392 (step)********** (real)
------------------------------------------------------------------------

 ANCopt (total)                0 d,  0 h,  0 min,  0.077 sec
 optimizer setup                ...        0 min,  0.000 sec (  0.058%)
 model hessian                  ...        0 min,  0.000 sec (  0.259%)
 ANC generation                 ...        0 min,  0.000 sec (  0.081%)
 coordinate transformation      ...        0 min,  0.000 sec (  0.098%)
 single point calculation       ...        0 min,  0.074 sec ( 95.735%)
 optimization log               ...        0 min,  0.001 sec (  1.178%)
 hessian update                 ...        0 min,  0.001 sec (  1.153%)
 rational function              ...        0 min,  0.000 sec (  0.632%)

================
 final structure:
================
7
 xtb: 6.5.1 (conda-forge)
Be           0.64268134504010       -0.34895204206192        1.10110533526931
B            1.43862268609087        0.97339786325813        0.58231636008251
B            1.48282676355000        1.03220307062866        2.07097845199826
B            0.86080724093273       -0.00344654477338        3.20089403972858
H            1.51910508288130       -0.84399261922859        3.72628637053884
H            1.63280259846814        1.26700836599786        3.28872947857820
H           -0.18484571696322        0.19103690617922        3.73418996380463

 Bond Distances (Angstroems)
 ---------------------------
Be1-B2=1.6283        Be1-B3=1.8852        Be1-B4=2.1392        B2-Be1=1.6283        B2-B3=1.4905         B3-Be1=1.8852        
B3-B2=1.4905         B3-B4=1.6541         B3-H6=1.2492         B4-Be1=2.1392        B4-B3=1.6541         B4-H5=1.1899         
B4-H6=1.4892         B4-H7=1.1898         H5-B4=1.1899         H6-B3=1.2492         H6-B4=1.4892         H7-B4=1.1898         
 B  H  Rav=1.2795 sigma=0.1235  Rmin=1.1898  Rmax=1.4892     4
 B  Be Rav=1.8842 sigma=0.2086  Rmin=1.6283  Rmax=2.1392     3
 B  B  Rav=1.5723 sigma=0.0818  Rmin=1.4905  Rmax=1.6541     2

 selected bond angles (degree)
 --------------------
B3-Be1-B2= 49.54               B4-Be1-B2= 97.57               B4-Be1-B3= 48.03               B3-B2-Be1= 74.24               
B2-B3-Be1= 56.22               B4-B3-Be1= 74.05               B4-B3-B2=130.27                H6-B3-Be1=133.84               
H6-B3-B2=169.93                H6-B3-B4= 59.80                B3-B4-Be1= 57.92               H5-B4-Be1=112.07               
H5-B4-B3=122.40                H6-B4-Be1=104.39               H6-B4-B3= 46.47                H6-B4-H5=106.85                
H7-B4-Be1=112.13               H7-B4-B3=122.30                H7-B4-H5=113.81                H7-B4-H6=106.84                
B4-H6-B3= 73.73                

 selected dihedral angles (degree)
 ---------------------------------
B3-B2-Be1-B4=  0.07           B2-B3-Be1-B4=180.09           B4-B3-Be1-B2=179.91           H6-B3-Be1-B2=180.06           
H6-B3-Be1-B4=  0.14           B4-B3-B2-Be1=359.89           H6-B3-B2-Be1=179.77           B3-B4-Be1-B2=359.93           
H5-B4-Be1-B2=244.57           H5-B4-Be1-B3=244.64           H6-B4-Be1-B2=359.84           H6-B4-Be1-B3=359.91           
H7-B4-Be1-B2=115.14           H7-B4-Be1-B3=115.20           Be1-B4-B3-B2=  0.10           Be1-B4-B3-H6=180.12           
H5-B4-B3-Be1= 97.32           H5-B4-B3-B2= 97.42            H5-B4-B3-H6=277.44            H6-B4-B3-Be1=179.88           
H6-B4-B3-B2=179.98            H7-B4-B3-Be1=262.54           H7-B4-B3-B2=262.63            H7-B4-B3-H6= 82.66            
B4-H6-B3-Be1=359.84           B4-H6-B3-B2=180.10            

 CMA Distance (Angstroems)
 ---------------------------
R(CMA):  1.5123
           -------------------------------------------------
          |                Final Singlepoint                |
           -------------------------------------------------

          ...................................................
          :                      SETUP                      :
          :.................................................:
          :  # basis functions                  19          :
          :  # atomic orbitals                  19          :
          :  # shells                           11          :
          :  # electrons                        14          :
          :  max. iterations                   250          :
          :  Hamiltonian                  GFN2-xTB          :
          :  restarted?                      false          :
          :  GBSA solvation                  false          :
          :  PC potential                    false          :
          :  electronic temp.          300.0000000     K    :
          :  accuracy                    1.0000000          :
          :  -> integral cutoff          0.2500000E+02      :
          :  -> integral neglect         0.1000000E-07      :
          :  -> SCF convergence          0.1000000E-05 Eh   :
          :  -> wf. convergence          0.1000000E-03 e    :
          :  Broyden damping             0.4000000          :
          ...................................................

 iter      E             dE          RMSdq      gap      omega  full diag
   1     -5.7833727 -0.578337E+01  0.242E-05    1.99       0.0  T
   2     -5.7833727  0.425437E-12  0.169E-05    1.99    2237.9  T
   3     -5.7833727  0.109157E-11  0.179E-05    1.99    2116.3  T

   *** convergence criteria satisfied after 3 iterations ***

         #    Occupation            Energy/Eh            Energy/eV
      -------------------------------------------------------------
         1        2.0000           -0.4602201             -12.5232
         2        2.0000           -0.4096500             -11.1471
         3        2.0000           -0.3891243             -10.5886
         4        2.0000           -0.3839833             -10.4487
         5        2.0000           -0.3103220              -8.4443
         6        2.0000           -0.2929294              -7.9710
         7        2.0000           -0.2664225              -7.2497 (HOMO)
         8                         -0.1934323              -5.2636 (LUMO)
         9                         -0.1867137              -5.0807
        10                         -0.1090166              -2.9665
        11                         -0.0900708              -2.4510
        12                         -0.0420385              -1.1439
       ...                                ...                  ...
        19                          1.1901556              32.3858
      -------------------------------------------------------------
                  HL-Gap            0.0729901 Eh            1.9862 eV
             Fermi-level           -0.2299274 Eh           -6.2566 eV

 SCC (total)                   0 d,  0 h,  0 min,  0.001 sec
 SCC setup                      ...        0 min,  0.000 sec (  2.565%)
 Dispersion                     ...        0 min,  0.000 sec (  8.288%)
 classical contributions        ...        0 min,  0.000 sec (  3.750%)
 integral evaluation            ...        0 min,  0.000 sec ( 10.298%)
 iterations                     ...        0 min,  0.000 sec ( 35.719%)
 molecular gradient             ...        0 min,  0.000 sec ( 36.634%)
 printout                       ...        0 min,  0.000 sec (  1.956%)

         :::::::::::::::::::::::::::::::::::::::::::::::::::::
         ::                     SUMMARY                     ::
         :::::::::::::::::::::::::::::::::::::::::::::::::::::
         :: total energy              -5.694315542179 Eh    ::
         :: gradient norm              0.000538734267 Eh/a0 ::
         :: HOMO-LUMO gap              1.986162312612 eV    ::
         ::.................................................::
         :: SCC energy                -5.783372718299 Eh    ::
         :: -> isotropic ES            0.002466537651 Eh    ::
         :: -> anisotropic ES         -0.001238523441 Eh    ::
         :: -> anisotropic XC         -0.025590718486 Eh    ::
         :: -> dispersion             -0.003185709937 Eh    ::
         :: repulsion energy           0.089056963512 Eh    ::
         :: add. restraining           0.000000000000 Eh    ::
         :: total charge              -0.000000000000 e     ::
         :::::::::::::::::::::::::::::::::::::::::::::::::::::

           -------------------------------------------------
          |                Property Printout                |
           -------------------------------------------------

    * Orbital Energies and Occupations

         #    Occupation            Energy/Eh            Energy/eV
      -------------------------------------------------------------
         1        2.0000           -0.4602201             -12.5232
         2        2.0000           -0.4096500             -11.1471
         3        2.0000           -0.3891243             -10.5886
         4        2.0000           -0.3839833             -10.4487
         5        2.0000           -0.3103220              -8.4443
         6        2.0000           -0.2929294              -7.9710
         7        2.0000           -0.2664225              -7.2497 (HOMO)
         8                         -0.1934323              -5.2636 (LUMO)
         9                         -0.1867137              -5.0807
        10                         -0.1090166              -2.9665
        11                         -0.0900708              -2.4510
        12                         -0.0420385              -1.1439
        13                          0.1323154               3.6005
        14                          0.2331699               6.3449
        15                          0.3663792               9.9697
        16                          0.4350974              11.8396
        17                          0.5011268              13.6364
        18                          0.8261388              22.4804
        19                          1.1901556              32.3858
      -------------------------------------------------------------
                  HL-Gap            0.0729901 Eh            1.9862 eV
             Fermi-level           -0.2299274 Eh           -6.2566 eV

     #   Z          covCN         q      C6AA      α(0)
     1   4 Be       2.475     0.407    14.604     8.822
     2   5 B        1.891    -0.101    48.296    14.632
     3   5 B        3.716    -0.020    22.981     7.751
     4   5 B        3.884     0.125    20.543     7.304
     5   1 H        0.931    -0.191    10.177     4.988
     6   1 H        1.272    -0.028     3.576     2.952
     7   1 H        0.931    -0.191    10.175     4.988

 Mol. C6AA /au·bohr⁶  :        782.847017
 Mol. C8AA /au·bohr⁸  :      23922.143351
 Mol. α(0) /au        :         51.436241


Wiberg/Mayer (AO) data.
largest (>0.10) Wiberg bond orders for each atom

 ---------------------------------------------------------------------------
     #   Z sym  total        # sym  WBO       # sym  WBO       # sym  WBO
 ---------------------------------------------------------------------------
     1   4 Be   2.165 --     2 B    1.405     3 B    0.558     4 B    0.203
     2   5 B    3.372 --     3 B    1.709     1 Be   1.405     4 B    0.218
     3   5 B    3.645 --     2 B    1.709     4 B    0.797     6 H    0.578
                             1 Be   0.558
     4   5 B    3.521 --     7 H    0.955     5 H    0.955     3 B    0.797
                             6 H    0.394     2 B    0.218     1 Be   0.203
     5   1 H    0.963 --     4 B    0.955
     6   1 H    0.999 --     3 B    0.578     4 B    0.394
     7   1 H    0.963 --     4 B    0.955
 ---------------------------------------------------------------------------

Topologies differ in total number of bonds
Writing topology from bond orders to xtbtopo.mol

molecular dipole:
                 x           y           z       tot (Debye)
 q only:       -0.202      -0.325      -1.459
   full:       -0.439      -0.731       0.071       2.174
molecular quadrupole (traceless):
                xx          xy          yy          xz          yz          zz
 q only:        5.711      -0.374       7.101      -3.299       0.482     -12.813
  q+dip:       -0.903       1.205       4.327      -0.605      -1.295      -3.425
   full:       -0.259       1.001       4.726       0.466       0.501      -4.467

           -------------------------------------------------
          |                Geometry Summary                 |
           -------------------------------------------------

      molecular mass/u    :       44.4690895
   center of mass at/Å    :        1.1170157       0.4299494       1.8900260
  moments of inertia/u·Å² :        0.2132783E+02   0.5695601E+02   0.7427745E+02
rotational constants/cm⁻¹ :        0.7904054E+00   0.2959764E+00   0.2269549E+00

 * 7 selected distances

     #   Z          #   Z                                           value/Å
     1   4 Be       2   5 B                                       1.6282734
     1   4 Be       3   5 B                                       1.8852290 (max)
     2   5 B        3   5 B                                       1.4904789
     3   5 B        4   5 B                                       1.6541427
     4   5 B        5   1 H                                       1.1899206
     3   5 B        6   1 H                                       1.2492174
     4   5 B        7   1 H                                       1.1897978 (min)

 * 3 distinct bonds (by element types)

   Z      Z             #   av. dist./Å        max./Å        min./Å
   1 H    5 B           3     1.2096453     1.2492174     1.1897978
   4 Be   5 B           2     1.7567512     1.8852290     1.6282734
   5 B    5 B           2     1.5723108     1.6541427     1.4904789
Note: The following floating-point exceptions are signalling: IEEE_UNDERFLOW_FLAG
normal termination of xtb


optimized geometry written to: xtbopt.xyz


           -------------------------------------------------
          | TOTAL ENERGY               -5.694315542179 Eh   |
          | GRADIENT NORM               0.000538734267 Eh/α |
          | HOMO-LUMO GAP               1.986162312612 eV   |
           -------------------------------------------------
########################################################################
[WARNING] Runtime exception occurred
-3- restart_readRestart: Dimension missmatch in restart file.
-2- restart_readRestart: Multiplicity missmatch in restart file.
-1- restart_readRestart: Number of electron missmatch in restart file.
########################################################################

------------------------------------------------------------------------
 * finished run on 2025/06/07 at 03:27:46.160     
------------------------------------------------------------------------
 total:
 * wall-time:     0 d,  0 h,  0 min,  0.096 sec
 *  cpu-time:     0 d,  0 h,  0 min,  1.377 sec
 * ratio c/w:    14.402 speedup
 SCF:
 * wall-time:     0 d,  0 h,  0 min,  0.014 sec
 *  cpu-time:     0 d,  0 h,  0 min,  0.196 sec
 * ratio c/w:    13.891 speedup
 ANC optimizer:
 * wall-time:     0 d,  0 h,  0 min,  0.079 sec
 *  cpu-time:     0 d,  0 h,  0 min,  1.153 sec
 * ratio c/w:    14.649 speedup

