      -----------------------------------------------------------      
     |                   =====================                   |     
     |                           x T B                           |     
     |                   =====================                   |     
     |                         S. Grimme                         |     
     |          Mulliken Center for Theoretical Chemistry        |     
     |                    University of Bonn                     |     
      -----------------------------------------------------------      

   * xtb version 6.5.1 (conda-forge) compiled by 'runner@Mac-1657629245115.local' on 2022-07-12

   xtb is free software: you can redistribute it and/or modify it under
   the terms of the GNU Lesser General Public License as published by
   the Free Software Foundation, either version 3 of the License, or
   (at your option) any later version.
   
   xtb is distributed in the hope that it will be useful,
   but WITHOUT ANY WARRANTY; without even the implied warranty of
   MERCHANTABILITY or FITNESS FOR A PARTICULAR PURPOSE.  See the
   GNU Lesser General Public License for more details.
   
   Cite this work as:
   * C. Bannwarth, E. Caldeweyher, S. Ehlert, A. Hansen, P. Pracht,
     J. Seibert, S. Spicher, S. Grimme, WIREs Comput. Mol. Sci., 2020, 11,
     e01493. DOI: 10.1002/wcms.1493
   
   for GFN2-xTB:
   * C. Bannwarth, S. Ehlert and S. Grimme., J. Chem. Theory Comput., 2019,
     15, 1652-1671. DOI: 10.1021/acs.jctc.8b01176
   for GFN1-xTB:
   * S. Grimme, C. Bannwarth, P. Shushkov, J. Chem. Theory Comput., 2017,
     13, 1989-2009. DOI: 10.1021/acs.jctc.7b00118
   for GFN0-xTB:
   * P. Pracht, E. Caldeweyher, S. Ehlert, S. Grimme, ChemRxiv, 2019, preprint.
     DOI: 10.26434/chemrxiv.8326202.v1
   for GFN-FF:
   * S. Spicher and S. Grimme, Angew. Chem. Int. Ed., 2020, 59, 15665-15673.
     DOI: 10.1002/anie.202004239
   
   for ALPB and GBSA implicit solvation:
   * S. Ehlert, M. Stahn, S. Spicher, S. Grimme, J. Chem. Theory Comput.,
     2021, 17, 4250-4261. DOI: 10.1021/acs.jctc.1c00471
   
   for DFT-D4:
   * E. Caldeweyher, C. Bannwarth and S. Grimme, J. Chem. Phys., 2017,
     147, 034112. DOI: 10.1063/1.4993215
   * E. Caldeweyher, S. Ehlert, A. Hansen, H. Neugebauer, S. Spicher,
     C. Bannwarth and S. Grimme, J. Chem. Phys., 2019, 150, 154122.
     DOI: 10.1063/1.5090222
   * E. Caldeweyher, J.-M. Mewes, S. Ehlert and S. Grimme, Phys. Chem. Chem. Phys.
     2020, 22, 8499-8512. DOI: 10.1039/D0CP00502A
   
   for sTDA-xTB:
   * S. Grimme and C. Bannwarth, J. Chem. Phys., 2016, 145, 054103.
     DOI: 10.1063/1.4959605
   
   in the mass-spec context:
   * V. Asgeirsson, C. Bauer and S. Grimme, Chem. Sci., 2017, 8, 4879.
     DOI: 10.1039/c7sc00601b
   * J. Koopman and S. Grimme, ACS Omega 2019, 4, 12, 15120-15133.
     DOI: 10.1021/acsomega.9b02011
   
   for metadynamics refer to:
   * S. Grimme, J. Chem. Theory Comput., 2019, 155, 2847-2862
     DOI: 10.1021/acs.jctc.9b00143
   
   for SPH calculations refer to:
   * S. Spicher and S. Grimme, J. Chem. Theory Comput., 2021, 17, 1701-1714
     DOI: 10.1021/acs.jctc.0c01306
   
   with help from (in alphabetical order)
   P. Atkinson, C. Bannwarth, F. Bohle, G. Brandenburg, E. Caldeweyher
   M. Checinski, S. Dohm, S. Ehlert, S. Ehrlich, I. Gerasimov, C. Hölzer
   A. Katbashev, J. Koopman, C. Lavigne, S. Lehtola, F. März, M. Müller,
   F. Musil, H. Neugebauer, J. Pisarek, C. Plett, P. Pracht, F. Pultar,
   J. Seibert, P. Shushkov, S. Spicher, M. Stahn, M. Steiner, T. Strunk,
   J. Stückrath, T. Rose, and J. Unsleber
   
 * started run on 2025/06/07 at 03:27:46.171     

           -------------------------------------------------
          |                Calculation Setup                |
           -------------------------------------------------

          program call               : xtb B3BeH4.xyz --gfn 2 --opt
          coordinate file            : B3BeH4.xyz
          omp threads                :                    16

   ID    Z sym.   atoms
    1    4 Be     1
    2    5 B      2-4
    3    1 H      5-8

molecular fragmentation (1/2 indicates fragments):
12222222
# atoms in fragment 1/2:     1     7
 fragment masses (1/2) :        9.01       36.46
CMA distance (Bohr)    :   4.875
constraining FC (au)   :  0.0500

           -------------------------------------------------
          |                 G F N 2 - x T B                 |
           -------------------------------------------------

        Reference                      10.1021/acs.jctc.8b01176
      * Hamiltonian:
        H0-scaling (s, p, d)           1.850000    2.230000    2.230000
        zeta-weighting                 0.500000
      * Dispersion:
        s8                             2.700000
        a1                             0.520000
        a2                             5.000000
        s9                             5.000000
      * Repulsion:
        kExp                           1.500000    1.000000
        rExp                           1.000000
      * Coulomb:
        alpha                          2.000000
        third order                    shell-resolved
        anisotropic                    true
        a3                             3.000000
        a5                             4.000000
        cn-shift                       1.200000
        cn-exp                         4.000000
        max-rad                        5.000000


          ...................................................
          :                      SETUP                      :
          :.................................................:
          :  # basis functions                  20          :
          :  # atomic orbitals                  20          :
          :  # shells                           12          :
          :  # electrons                        15          :
          :  max. iterations                   250          :
          :  Hamiltonian                  GFN2-xTB          :
          :  restarted?                      false          :
          :  GBSA solvation                  false          :
          :  PC potential                    false          :
          :  electronic temp.          300.0000000     K    :
          :  accuracy                    1.0000000          :
          :  -> integral cutoff          0.2500000E+02      :
          :  -> integral neglect         0.1000000E-07      :
          :  -> SCF convergence          0.1000000E-05 Eh   :
          :  -> wf. convergence          0.1000000E-03 e    :
          :  Broyden damping             0.4000000          :
          ...................................................

 iter      E             dE          RMSdq      gap      omega  full diag
   1     16.0374717  0.160375E+02  0.257E+01    0.58       0.0  T
   2     -2.2275269 -0.182650E+02  0.216E+01    0.84       1.0  T
   3     -1.3522448  0.875282E+00  0.181E+01    1.66       1.0  T
   4     -0.0321597  0.132009E+01  0.180E+01    0.30       1.0  T
   5     -2.8978864 -0.286573E+01  0.123E+01    0.18       1.0  T
   6     -3.0012720 -0.103386E+00  0.115E+01    0.59       1.0  T
   7      1.4948128  0.449608E+01  0.165E+01    0.53       1.0  T
   8     -4.1166076 -0.561142E+01  0.886E+00    0.58       1.0  T
   9     -4.4974743 -0.380867E+00  0.901E+00    0.60       1.0  T
  10     -4.3788361  0.118638E+00  0.930E+00    0.56       1.0  T
  11     -4.6358985 -0.257062E+00  0.992E+00    0.54       1.0  T
  12     -5.1921685 -0.556270E+00  0.868E+00    0.45       1.0  T
  13     -5.1313883  0.607802E-01  0.641E+00    0.72       1.0  T
  14     -5.5788280 -0.447440E+00  0.639E+00    0.59       1.0  T
  15     -4.8110027  0.767825E+00  0.104E+01    0.10       1.0  T
  16     -5.4187421 -0.607739E+00  0.776E+00    0.30       1.0  T
  17     -5.5139634 -0.952213E-01  0.712E+00    0.40       1.0  T
  18     -3.4988482  0.201512E+01  0.123E+01    0.14       1.0  T
  19     -2.6728031  0.826045E+00  0.131E+01    0.26       1.0  T
  20     -3.8504480 -0.117764E+01  0.123E+01    0.11       1.0  T
  21     -3.3548974  0.495551E+00  0.120E+01    0.16       1.0  T
  22     -5.5901538 -0.223526E+01  0.372E+00    0.67       1.0  T
  23     -5.6277421 -0.375883E-01  0.411E+00    0.70       1.0  T
  24     -5.6235716  0.417048E-02  0.410E+00    0.72       1.0  T
  25     -5.6272301 -0.365852E-02  0.427E+00    0.68       1.0  T
  26     -5.3279888  0.299241E+00  0.647E+00    0.37       1.0  T
  27     -5.2937420  0.342469E-01  0.671E+00    0.35       1.0  T
  28     -5.3168035 -0.230615E-01  0.653E+00    0.38       1.0  T
  29     -5.5355609 -0.218757E+00  0.440E+00    0.51       1.0  T
  30     -5.5399528 -0.439192E-02  0.410E+00    0.50       1.0  T
  31     -5.5435939 -0.364109E-02  0.383E+00    0.50       1.0  T
  32     -5.4938359  0.497580E-01  0.424E+00    0.46       1.0  T
  33     -5.4677833  0.260526E-01  0.446E+00    0.43       1.0  T
  34     -5.4785534 -0.107701E-01  0.432E+00    0.43       1.0  T
  35     -5.4535241  0.250293E-01  0.455E+00    0.39       1.0  T
  36     -5.4154444  0.380796E-01  0.498E+00    0.37       1.0  T
  37     -5.4739673 -0.585229E-01  0.431E+00    0.40       1.0  T
  38     -5.5733995 -0.994322E-01  0.267E+00    0.48       1.0  T
  39     -5.6099895 -0.365900E-01  0.164E+00    0.54       1.0  T
  40     -5.6154123 -0.542278E-02  0.146E+00    0.55       1.0  T
  41     -5.6242950 -0.888273E-02  0.108E+00    0.59       1.0  T
  42     -5.6284635 -0.416853E-02  0.648E-01    0.62       1.0  T
  43     -5.6288443 -0.380773E-03  0.471E-01    0.62       1.0  T
  44     -5.6287576  0.867178E-04  0.348E-01    0.62       1.0  T
  45     -5.6287086  0.489386E-04  0.285E-01    0.62       1.0  T
  46     -5.6288863 -0.177677E-03  0.150E-01    0.62       1.0  T
  47     -5.6289217 -0.353389E-04  0.101E-01    0.62       1.0  T
  48     -5.6289222 -0.495741E-06  0.919E-02    0.62       1.0  T
  49     -5.6289176  0.453450E-05  0.592E-02    0.62       1.0  T
  50     -5.6289190 -0.136912E-05  0.473E-02    0.62       1.0  T
  51     -5.6289211 -0.209105E-05  0.466E-02    0.62       1.0  T
  52     -5.6289188  0.226752E-05  0.378E-02    0.62       1.0  T
  53     -5.6289186  0.253804E-06  0.353E-02    0.62       1.0  T
  54     -5.6289185  0.105100E-06  0.293E-02    0.62       1.2  T
  55     -5.6289204 -0.197971E-05  0.297E-02    0.62       1.2  T
  56     -5.6289218 -0.134312E-05  0.272E-02    0.62       1.3  T
  57     -5.6289222 -0.407828E-06  0.258E-02    0.62       1.4  T
  58     -5.6289223 -0.160296E-06  0.243E-02    0.62       1.5  T
  59     -5.6289224 -0.728826E-07  0.222E-02    0.62       1.6  T
  60     -5.6289226 -0.211793E-06  0.208E-02    0.62       1.7  T
  61     -5.6289230 -0.394089E-06  0.167E-02    0.62       2.1  T
  62     -5.6289231 -0.477514E-07  0.126E-02    0.62       2.8  T
  63     -5.6289230  0.497927E-07  0.896E-03    0.62       3.9  T
  64     -5.6289231 -0.428097E-07  0.599E-03    0.62       5.9  T
  65     -5.6289231 -0.477033E-07  0.352E-03    0.62      10.0  T
  66     -5.6289231 -0.207499E-07  0.109E-03    0.62      32.5  T
  67     -5.6289231 -0.238475E-08  0.340E-04    0.62     103.9  T
  68     -5.6289231 -0.159160E-09  0.247E-04    0.62     143.0  T

   *** convergence criteria satisfied after 68 iterations ***

         #    Occupation            Energy/Eh            Energy/eV
      -------------------------------------------------------------
         1        2.0000           -0.5765565             -15.6889
         2        2.0000           -0.3710585             -10.0970
         3        2.0000           -0.3298659              -8.9761
         4        2.0000           -0.2927985              -7.9675
         5        2.0000           -0.2829748              -7.7001
         6        2.0000           -0.2577053              -7.0125
         7        1.9991           -0.2312608              -6.2929
         8        1.0009           -0.2179116              -5.9297 (HOMO)
         9        0.0000           -0.1951890              -5.3114 (LUMO)
        10                         -0.1863961              -5.0721
        11                         -0.1731906              -4.7128
        12                         -0.1584012              -4.3103
        13                         -0.1178236              -3.2061
       ...                                ...                  ...
        20                          0.5484030              14.9228
      -------------------------------------------------------------
                  HL-Gap            0.0227225 Eh            0.6183 eV
             Fermi-level           -0.2155682 Eh           -5.8659 eV

 SCC (total)                   0 d,  0 h,  0 min,  0.015 sec
 SCC setup                      ...        0 min,  0.000 sec (  0.422%)
 Dispersion                     ...        0 min,  0.000 sec (  1.218%)
 classical contributions        ...        0 min,  0.000 sec (  0.422%)
 integral evaluation            ...        0 min,  0.000 sec (  0.895%)
 iterations                     ...        0 min,  0.014 sec ( 92.691%)
 molecular gradient             ...        0 min,  0.001 sec (  3.900%)
 printout                       ...        0 min,  0.000 sec (  0.355%)

         :::::::::::::::::::::::::::::::::::::::::::::::::::::
         ::                     SUMMARY                     ::
         :::::::::::::::::::::::::::::::::::::::::::::::::::::
         :: total energy              -5.575939783344 Eh    ::
         :: gradient norm              0.294601817230 Eh/a0 ::
         :: HOMO-LUMO gap              0.618311946530 eV    ::
         ::.................................................::
         :: SCC energy                -5.628923132672 Eh    ::
         :: -> isotropic ES            0.004483787129 Eh    ::
         :: -> anisotropic ES          0.001467557029 Eh    ::
         :: -> anisotropic XC         -0.010671153491 Eh    ::
         :: -> dispersion             -0.007994549293 Eh    ::
         :: repulsion energy           0.052981273957 Eh    ::
         :: add. restraining           0.000000000000 Eh    ::
         :: total charge              -0.000000000607 e     ::
         :::::::::::::::::::::::::::::::::::::::::::::::::::::

      ----------------------------------------------------------- 
     |                   =====================                   |
     |                        A N C O P T                        |
     |                   =====================                   |
     |               Approximate Normal Coordinate               |
     |                Rational Function Optimizer                |
      ----------------------------------------------------------- 

          ...................................................
          :                      SETUP                      :
          :.................................................:
          :   optimization level            normal          :
          :   max. optcycles                   200          :
          :   ANC micro-cycles                  20          :
          :   degrees of freedom                18          :
          :.................................................:
          :   RF solver                   davidson          :
          :   write xtbopt.log                true          :
          :   linear?                        false          :
          :   energy convergence         0.5000000E-05 Eh   :
          :   grad. convergence          0.1000000E-02 Eh/α :
          :   maximium RF displ.         1.0000000          :
          :   Hlow (freq-cutoff)         0.1000000E-01      :
          :   Hmax (freq-cutoff)         5.0000000          :
          :   S6 in model hess.         20.0000000          :
          ...................................................

generating ANC from model Hessian ...
Using Lindh-Hessian (1995)
 Shifting diagonal of input Hessian by    1.3128915622769050E-002
 Lowest  eigenvalues of input Hessian
    0.010000    0.012907    0.000000    0.000000    0.000000    0.000000
    0.000000    0.000000    0.013158    0.013800    0.015984    0.020857
    0.022279    0.030883    0.036897    0.044082    0.053998    0.079606
 Highest eigenvalues
    0.139771    0.167858    0.247921    0.256387    0.289159    0.312758


........................................................................
.............................. CYCLE    1 ..............................
........................................................................
   1     -5.6289231 -0.562892E+01  0.207E-04    0.62       0.0  T
   2     -5.6289231  0.106551E-07  0.997E-04    0.62      35.5  T
   3     -5.6289231 -0.981898E-08  0.367E-04    0.62      96.2  T
     SCC iter.                  ...        0 min,  0.001 sec
     gradient                   ...        0 min,  0.000 sec
 * total energy  :    -5.5759398 Eh     change        0.6091687E-09 Eh
   gradient norm :     0.2921631 Eh/α   predicted     0.0000000E+00 (-100.00%)
   displ. norm   :     0.8563102 α      lambda       -0.2404018E+00
   maximum displ.:     0.3653483 α      in ANC's #6, #9, #15, ...

........................................................................
.............................. CYCLE    2 ..............................
........................................................................
   1     -5.7450403 -0.574504E+01  0.335E+00    0.69       0.0  T
   2     -5.5304540  0.214586E+00  0.492E+00    0.46       1.0  T
   3     -5.5101999  0.202541E-01  0.413E+00    0.91       1.0  T
   4     -5.3380025  0.172197E+00  0.622E+00    0.39       1.0  T
   5     -5.5488157 -0.210813E+00  0.407E+00    0.48       1.0  T
   6     -5.7221742 -0.173359E+00  0.175E+00    0.48       1.0  T
   7     -5.7493893 -0.272151E-01  0.968E-01    0.66       1.0  T
   8     -5.7577557 -0.836639E-02  0.653E-01    0.67       1.0  T
   9     -5.7501158  0.763993E-02  0.105E+00    0.73       1.0  T
  10     -5.7558841 -0.576830E-02  0.618E-01    0.71       1.0  T
  11     -5.7581427 -0.225860E-02  0.221E-01    0.69       1.0  T
  12     -5.7580823  0.603536E-04  0.225E-01    0.69       1.0  T
  13     -5.7583510 -0.268667E-03  0.459E-02    0.68       1.0  T
  14     -5.7583623 -0.113020E-04  0.255E-02    0.68       1.4  T
  15     -5.7583631 -0.754187E-06  0.106E-02    0.69       3.3  T
  16     -5.7583633 -0.221567E-06  0.895E-03    0.69       4.0  T
  17     -5.7583638 -0.475553E-06  0.297E-03    0.68      11.9  T
  18     -5.7583638 -0.394611E-07  0.161E-03    0.68      22.0  T
  19     -5.7583638 -0.993804E-08  0.248E-04    0.68     142.5  T
  20     -5.7583638  0.250912E-09  0.145E-04    0.68     244.0  T
     SCC iter.                  ...        0 min,  0.003 sec
     gradient                   ...        0 min,  0.000 sec
 * total energy  :    -5.7278449 Eh     change       -0.1519051E+00 Eh
   gradient norm :     0.1896022 Eh/α   predicted    -0.2083403E+00 (  37.15%)
   displ. norm   :     0.8859429 α      lambda       -0.1639586E+00
   maximum displ.:     0.5603791 α      in ANC's #14, #10, #15, ...

........................................................................
.............................. CYCLE    3 ..............................
........................................................................
   1     -5.8934767 -0.589348E+01  0.452E+00    0.71       0.0  T
   2     -3.4868303  0.240665E+01  0.108E+01    0.71       1.0  T
   3     -5.6701021 -0.218327E+01  0.460E+00    1.11       1.0  T
   4     -5.7403105 -0.702084E-01  0.409E+00    0.50       1.0  T
   5     -5.8947007 -0.154390E+00  0.193E+00    0.66       1.0  T
   6     -5.9129519 -0.182512E-01  0.112E+00    0.70       1.0  T
   7     -5.9215226 -0.857072E-02  0.899E-01    0.60       1.0  T
   8     -5.9273851 -0.586245E-02  0.737E-01    0.53       1.0  T
   9     -5.9194101  0.797504E-02  0.104E+00    0.48       1.0  T
  10     -5.9293039 -0.989390E-02  0.551E-01    0.56       1.0  T
  11     -5.9241471  0.515687E-02  0.889E-01    0.65       1.0  T
  12     -5.9274890 -0.334197E-02  0.722E-01    0.60       1.0  T
  13     -5.9286680 -0.117892E-02  0.238E-01    0.60       1.0  T
  14     -5.9294641 -0.796091E-03  0.118E-01    0.58       1.0  T
  15     -5.9294495  0.145264E-04  0.565E-02    0.59       1.0  T
  16     -5.9294890 -0.394620E-04  0.111E-02    0.58       3.2  T
  17     -5.9294889  0.610076E-07  0.159E-02    0.58       2.2  T
  18     -5.9294897 -0.764051E-06  0.394E-03    0.58       9.0  T
  19     -5.9294897 -0.121467E-07  0.781E-04    0.58      45.3  T
  20     -5.9294897 -0.347993E-09  0.400E-04    0.58      88.5  T
     SCC iter.                  ...        0 min,  0.003 sec
     gradient                   ...        0 min,  0.000 sec
 * total energy  :    -5.8696712 Eh     change       -0.1418264E+00 Eh
   gradient norm :     0.1512308 Eh/α   predicted    -0.1463244E+00 (   3.17%)
   displ. norm   :     0.8860974 α      lambda       -0.1250492E+00
   maximum displ.:     0.5164896 α      in ANC's #10, #3, #17, ...

........................................................................
.............................. CYCLE    4 ..............................
........................................................................
   1     -6.0622371 -0.606224E+01  0.388E+00    1.27       0.0  T
   2     -5.9661258  0.961113E-01  0.392E+00    1.19       1.0  T
   3     -6.0212206 -0.550948E-01  0.295E+00    1.41       1.0  T
   4     -5.2151134  0.806107E+00  0.639E+00    0.96       1.0  T
   5     -6.0828418 -0.867728E+00  0.609E-01    1.25       1.0  T
   6     -6.0765365  0.630530E-02  0.799E-01    1.19       1.0  T
   7     -6.0741156  0.242093E-02  0.893E-01    1.14       1.0  T
   8     -6.0729411  0.117446E-02  0.768E-01    1.16       1.0  T
   9     -6.0828504 -0.990929E-02  0.207E-01    1.22       1.0  T
  10     -6.0832196 -0.369152E-03  0.152E-01    1.23       1.0  T
  11     -6.0834233 -0.203716E-03  0.919E-02    1.23       1.0  T
  12     -6.0835526 -0.129240E-03  0.369E-02    1.24       1.0  T
  13     -6.0835571 -0.453187E-05  0.289E-02    1.24       1.2  T
  14     -6.0835722 -0.151455E-04  0.835E-03    1.24       4.2  T
  15     -6.0835729 -0.696779E-06  0.512E-03    1.24       6.9  T
  16     -6.0835733 -0.404927E-06  0.136E-03    1.24      26.0  T
  17     -6.0835734 -0.255219E-07  0.556E-05    1.24     635.6  T
  18     -6.0835734  0.138327E-09  0.107E-04    1.24     330.7  T
     SCC iter.                  ...        0 min,  0.002 sec
     gradient                   ...        0 min,  0.000 sec
 * total energy  :    -5.9529446 Eh     change       -0.8327338E-01 Eh
   gradient norm :     0.1540358 Eh/α   predicted    -0.1116169E+00 (  34.04%)
   displ. norm   :     0.7854083 α      lambda       -0.9860060E-01
   maximum displ.:     0.4079784 α      in ANC's #3, #17, #9, ...

........................................................................
.............................. CYCLE    5 ..............................
........................................................................
   1     -6.1169656 -0.611697E+01  0.286E+00    0.94       0.0  T
   2     -6.0173149  0.996507E-01  0.292E+00    1.38       1.0  T
   3     -5.4755925  0.541722E+00  0.621E+00    0.98       1.0  T
   4     -6.0296342 -0.554042E+00  0.271E+00    1.08       1.0  T
   5     -6.1132581 -0.836239E-01  0.869E-01    1.06       1.0  T
   6     -6.1237758 -0.105177E-01  0.462E-01    1.02       1.0  T
   7     -6.1263775 -0.260161E-02  0.351E-01    0.98       1.0  T
   8     -6.1263690  0.847402E-05  0.349E-01    0.97       1.0  T
   9     -6.1263634  0.556434E-05  0.107E-01    0.99       1.0  T
  10     -6.1263966 -0.331425E-04  0.726E-02    0.99       1.0  T
  11     -6.1263972 -0.678486E-06  0.469E-02    0.99       1.0  T
  12     -6.1264228 -0.255248E-04  0.645E-03    0.99       5.5  T
  13     -6.1264223  0.419071E-06  0.559E-03    0.99       6.3  T
  14     -6.1264228 -0.458576E-06  0.735E-04    0.99      48.1  T
  15     -6.1264228  0.344560E-08  0.647E-04    0.99      54.6  T
     SCC iter.                  ...        0 min,  0.002 sec
     gradient                   ...        0 min,  0.000 sec
 * total energy  :    -6.0261778 Eh     change       -0.7323318E-01 Eh
   gradient norm :     0.0861113 Eh/α   predicted    -0.7971198E-01 (   8.85%)
   displ. norm   :     0.8583563 α      lambda       -0.6854009E-01
   maximum displ.:     0.4126869 α      in ANC's #17, #3, #9, ...

........................................................................
.............................. CYCLE    6 ..............................
........................................................................
   1     -6.1782357 -0.617824E+01  0.333E+00    1.07       0.0  T
   2     -5.8750347  0.303201E+00  0.404E+00    0.67       1.0  T
   3     -5.7583036  0.116731E+00  0.543E+00    1.62       1.0  T
   4     -6.0321646 -0.273861E+00  0.335E+00    1.48       1.0  T
   5     -6.1178770 -0.857125E-01  0.234E+00    1.37       1.0  T
   6     -6.1596318 -0.417548E-01  0.149E+00    1.23       1.0  T
   7     -6.1665890 -0.695718E-02  0.133E+00    1.19       1.0  T
   8     -6.1713976 -0.480859E-02  0.107E+00    1.19       1.0  T
   9     -6.1842438 -0.128462E-01  0.448E-01    1.11       1.0  T
  10     -6.1860232 -0.177948E-02  0.196E-01    1.10       1.0  T
  11     -6.1866282 -0.604992E-03  0.373E-02    1.07       1.0  T
  12     -6.1866352 -0.696492E-05  0.180E-02    1.07       2.0  T
  13     -6.1866347  0.536334E-06  0.101E-02    1.07       3.5  T
  14     -6.1866355 -0.883685E-06  0.707E-03    1.07       5.0  T
  15     -6.1866360 -0.450179E-06  0.239E-03    1.07      14.8  T
  16     -6.1866360 -0.524478E-07  0.187E-04    1.07     189.2  T
  17     -6.1866360 -0.268923E-10  0.876E-05    1.07     403.5  T
     SCC iter.                  ...        0 min,  0.002 sec
     gradient                   ...        0 min,  0.000 sec
 * total energy  :    -6.0696913 Eh     change       -0.4351352E-01 Eh
   gradient norm :     0.0918463 Eh/α   predicted    -0.5951937E-01 (  36.78%)
   displ. norm   :     0.6808174 α      lambda       -0.4333200E-01
   maximum displ.:     0.2966209 α      in ANC's #3, #7, #13, ...

........................................................................
.............................. CYCLE    7 ..............................
........................................................................
   1     -6.1760240 -0.617602E+01  0.281E+00    1.32       0.0  T
   2     -6.0919788  0.840452E-01  0.298E+00    1.43       1.0  T
   3     -6.1233917 -0.314130E-01  0.267E+00    1.23       1.0  T
   4     -6.1375974 -0.142057E-01  0.168E+00    1.70       1.0  T
   5     -6.1781068 -0.405093E-01  0.747E-01    1.25       1.0  T
   6     -6.1857619 -0.765514E-02  0.373E-01    1.45       1.0  T
   7     -6.1879203 -0.215840E-02  0.264E-01    1.38       1.0  T
   8     -6.1878491  0.712753E-04  0.145E-01    1.37       1.0  T
   9     -6.1882089 -0.359835E-03  0.221E-02    1.40       1.6  T
  10     -6.1882126 -0.371776E-05  0.134E-02    1.40       2.6  T
  11     -6.1882134 -0.806048E-06  0.300E-03    1.40      11.8  T
  12     -6.1882134  0.370924E-07  0.205E-03    1.40      17.2  T
  13     -6.1882135 -0.746033E-07  0.121E-04    1.40     291.6  T
  14     -6.1882135 -0.127853E-10  0.532E-05    1.40     665.0  T
     SCC iter.                  ...        0 min,  0.001 sec
     gradient                   ...        0 min,  0.000 sec
 * total energy  :    -6.0911530 Eh     change       -0.2146172E-01 Eh
   gradient norm :     0.1064355 Eh/α   predicted    -0.3170846E-01 (  47.74%)
   displ. norm   :     0.6552605 α      lambda       -0.4577220E-01
   maximum displ.:     0.2686911 α      in ANC's #4, #11, #12, ...

........................................................................
.............................. CYCLE    8 ..............................
........................................................................
   1     -6.1936912 -0.619369E+01  0.268E+00    1.65       0.0  T
   2     -6.1508965  0.427947E-01  0.228E+00    1.61       1.0  T
   3     -6.1150347  0.358618E-01  0.296E+00    1.50       1.0  T
   4     -6.1266481 -0.116135E-01  0.210E+00    1.78       1.0  T
   5     -6.1945967 -0.679486E-01  0.648E-01    1.54       1.0  T
   6     -6.1960713 -0.147458E-02  0.538E-01    1.69       1.0  T
   7     -6.2011757 -0.510438E-02  0.255E-01    1.65       1.0  T
   8     -6.2015152 -0.339487E-03  0.916E-02    1.63       1.0  T
   9     -6.2015916 -0.764716E-04  0.548E-02    1.64       1.0  T
  10     -6.2016347 -0.430490E-04  0.115E-02    1.63       3.1  T
  11     -6.2016347 -0.582904E-07  0.517E-03    1.63       6.8  T
  12     -6.2016349 -0.206921E-06  0.150E-03    1.63      23.6  T
  13     -6.2016350 -0.148958E-07  0.479E-04    1.63      73.8  T
  14     -6.2016350 -0.183452E-08  0.123E-04    1.63     287.6  T
     SCC iter.                  ...        0 min,  0.002 sec
     gradient                   ...        0 min,  0.000 sec
 * total energy  :    -6.1101161 Eh     change       -0.1896313E-01 Eh
   gradient norm :     0.0634325 Eh/α   predicted    -0.3271262E-01 (  72.51%)
   displ. norm   :     0.6839776 α      lambda       -0.2987694E-01
   maximum displ.:     0.4345016 α      in ANC's #1, #3, #7, ...

........................................................................
.............................. CYCLE    9 ..............................
........................................................................
   1     -6.2530625 -0.625306E+01  0.269E+00    1.50       0.0  T
   2     -6.2122553  0.408072E-01  0.231E+00    1.27       1.0  T
   3     -6.1556505  0.566048E-01  0.306E+00    1.85       1.0  T
   4     -6.0057820  0.149869E+00  0.303E+00    0.95       1.0  T
   5     -6.2188596 -0.213078E+00  0.129E+00    1.67       1.0  T
   6     -6.2550632 -0.362036E-01  0.510E-01    1.56       1.0  T
   7     -6.2606143 -0.555115E-02  0.245E-01    1.47       1.0  T
   8     -6.2606900 -0.756800E-04  0.188E-01    1.45       1.0  T
   9     -6.2606631  0.269599E-04  0.921E-02    1.46       1.0  T
  10     -6.2606529  0.101338E-04  0.805E-02    1.46       1.0  T
  11     -6.2607410 -0.881162E-04  0.279E-02    1.47       1.3  T
  12     -6.2607450 -0.395929E-05  0.162E-02    1.47       2.2  T
  13     -6.2607487 -0.372910E-05  0.286E-03    1.47      12.4  T
  14     -6.2607488 -0.100981E-06  0.508E-04    1.47      69.6  T
  15     -6.2607488 -0.743683E-09  0.271E-04    1.47     130.4  T
     SCC iter.                  ...        0 min,  0.002 sec
     gradient                   ...        0 min,  0.000 sec
 * total energy  :    -6.1034921 Eh     change        0.6624090E-02 Eh
   gradient norm :     0.1594182 Eh/α   predicted    -0.2192706E-01 (-431.02%)
   displ. norm   :     0.4782232 α      lambda       -0.5774178E-01
   maximum displ.:     0.2611271 α      in ANC's #5, #7, #6, ...

........................................................................
.............................. CYCLE   10 ..............................
........................................................................
   1     -6.2612107 -0.626121E+01  0.199E+00    1.84       0.0  T
   2     -6.2570969  0.411380E-02  0.129E+00    1.61       1.0  T
   3     -6.2500248  0.707208E-02  0.146E+00    1.93       1.0  T
   4     -6.2096259  0.403989E-01  0.166E+00    1.50       1.0  T
   5     -6.2525515 -0.429256E-01  0.813E-01    1.80       1.0  T
   6     -6.2640773 -0.115258E-01  0.308E-01    1.76       1.0  T
   7     -6.2653138 -0.123648E-02  0.130E-01    1.71       1.0  T
   8     -6.2654795 -0.165717E-03  0.434E-02    1.73       1.0  T
   9     -6.2654936 -0.141142E-04  0.129E-02    1.73       2.7  T
  10     -6.2654927  0.873626E-06  0.950E-03    1.73       3.7  T
  11     -6.2654947 -0.192378E-05  0.169E-03    1.73      20.9  T
  12     -6.2654947 -0.299521E-08  0.833E-04    1.73      42.4  T
  13     -6.2654947 -0.591619E-08  0.171E-04    1.73     207.3  T
     SCC iter.                  ...        0 min,  0.002 sec
     gradient                   ...        0 min,  0.000 sec
 * total energy  :    -6.1157903 Eh     change       -0.1229828E-01 Eh
   gradient norm :     0.1266404 Eh/α   predicted    -0.3547358E-01 ( 188.44%)
   displ. norm   :     0.5563911 α      lambda       -0.4494800E-01
   maximum displ.:     0.4186274 α      in ANC's #3, #7, #8, ...

........................................................................
.............................. CYCLE   11 ..............................
........................................................................
   1     -6.1902327 -0.619023E+01  0.279E+00    1.57       0.0  T
   2     -6.1608453  0.293875E-01  0.209E+00    1.76       1.0  T
   3     -5.5859346  0.574911E+00  0.495E+00    1.11       1.0  T
   4     -6.0153243 -0.429390E+00  0.288E+00    1.58       1.0  T
   5     -6.1534303 -0.138106E+00  0.140E+00    1.68       1.0  T
   6     -6.1784294 -0.249991E-01  0.810E-01    1.70       1.0  T
   7     -6.1902244 -0.117951E-01  0.475E-01    1.65       1.0  T
   8     -6.1918809 -0.165640E-02  0.361E-01    1.65       1.0  T
   9     -6.1930512 -0.117034E-02  0.162E-01    1.64       1.0  T
  10     -6.1932681 -0.216892E-03  0.462E-02    1.64       1.0  T
  11     -6.1932760 -0.789472E-05  0.120E-02    1.64       2.9  T
  12     -6.1932789 -0.291063E-05  0.210E-03    1.64      16.9  T
  13     -6.1932789 -0.323948E-07  0.107E-03    1.64      33.2  T
  14     -6.1932789 -0.187300E-07  0.524E-04    1.64      67.5  T
  15     -6.1932789 -0.327563E-08  0.137E-04    1.64     258.8  T
     SCC iter.                  ...        0 min,  0.002 sec
     gradient                   ...        0 min,  0.001 sec
 * total energy  :    -6.1172126 Eh     change       -0.1422211E-02 Eh
   gradient norm :     0.0847528 Eh/α   predicted    -0.2943129E-01 (1969.40%)
   displ. norm   :     0.3503002 α      lambda       -0.1837505E-01
   maximum displ.:     0.2100838 α      in ANC's #8, #4, #2, ...

........................................................................
.............................. CYCLE   12 ..............................
........................................................................
   1     -6.2270407 -0.622704E+01  0.139E+00    1.66       0.0  T
   2     -6.2000784  0.269623E-01  0.128E+00    1.52       1.0  T
   3     -6.1187241  0.813542E-01  0.245E+00    1.80       1.0  T
   4     -6.1893460 -0.706219E-01  0.133E+00    1.69       1.0  T
   5     -6.2143269 -0.249809E-01  0.792E-01    1.72       1.0  T
   6     -6.2282617 -0.139347E-01  0.115E-01    1.62       1.0  T
   7     -6.2282348  0.268481E-04  0.846E-02    1.63       1.0  T
   8     -6.2282268  0.804490E-05  0.417E-02    1.63       1.0  T
   9     -6.2282637 -0.369429E-04  0.159E-02    1.63       2.2  T
  10     -6.2282679 -0.422589E-05  0.705E-03    1.63       5.0  T
  11     -6.2282682 -0.292950E-06  0.238E-03    1.63      14.9  T
  12     -6.2282683 -0.462440E-07  0.462E-04    1.63      76.6  T
  13     -6.2282683 -0.517915E-10  0.201E-04    1.63     176.3  T
     SCC iter.                  ...        0 min,  0.002 sec
     gradient                   ...        0 min,  0.000 sec
 * total energy  :    -6.1294628 Eh     change       -0.1225020E-01 Eh
   gradient norm :     0.0391346 Eh/α   predicted    -0.1031493E-01 ( -15.80%)
   displ. norm   :     0.4080125 α      lambda       -0.1160613E-01
   maximum displ.:     0.1989594 α      in ANC's #13, #7, #1, ...

........................................................................
.............................. CYCLE   13 ..............................
........................................................................
   1     -6.2564401 -0.625644E+01  0.179E+00    1.68       0.0  T
   2     -6.2313706  0.250695E-01  0.195E+00    1.42       1.0  T
   3     -6.2473947 -0.160241E-01  0.135E+00    1.72       1.0  T
   4     -6.0636965  0.183698E+00  0.255E+00    1.33       1.0  T
   5     -6.2566895 -0.192993E+00  0.435E-01    1.60       1.0  T
   6     -6.2605473 -0.385776E-02  0.166E-01    1.60       1.0  T
   7     -6.2611089 -0.561587E-03  0.938E-02    1.59       1.0  T
   8     -6.2611253 -0.164437E-04  0.469E-02    1.58       1.0  T
   9     -6.2611296 -0.426095E-05  0.329E-02    1.59       1.1  T
  10     -6.2611378 -0.822619E-05  0.214E-02    1.59       1.7  T
  11     -6.2611427 -0.493655E-05  0.534E-03    1.59       6.6  T
  12     -6.2611429 -0.156192E-06  0.145E-03    1.59      24.3  T
  13     -6.2611429 -0.220373E-08  0.307E-04    1.59     115.1  T
  14     -6.2611429  0.560963E-09  0.189E-04    1.59     186.6  T
     SCC iter.                  ...        0 min,  0.002 sec
     gradient                   ...        0 min,  0.000 sec
 * total energy  :    -6.1295664 Eh     change       -0.1036100E-03 Eh
   gradient norm :     0.0706748 Eh/α   predicted    -0.6769130E-02 (6433.28%)
   displ. norm   :     0.3449161 α      lambda       -0.1366464E-01
   maximum displ.:     0.1966438 α      in ANC's #3, #2, #5, ...

........................................................................
.............................. CYCLE   14 ..............................
........................................................................
   1     -6.2526761 -0.625268E+01  0.123E+00    1.49       0.0  T
   2     -6.2474027  0.527339E-02  0.914E-01    1.55       1.0  T
   3     -6.1996075  0.477952E-01  0.174E+00    1.49       1.0  T
   4     -6.2292727 -0.296652E-01  0.109E+00    1.37       1.0  T
   5     -6.2502857 -0.210130E-01  0.382E-01    1.56       1.0  T
   6     -6.2533105 -0.302480E-02  0.127E-01    1.53       1.0  T
   7     -6.2532615  0.489624E-04  0.127E-01    1.51       1.0  T
   8     -6.2533379 -0.764225E-04  0.519E-02    1.52       1.0  T
   9     -6.2533564 -0.184718E-04  0.184E-02    1.52       1.9  T
  10     -6.2533626 -0.625479E-05  0.400E-03    1.52       8.8  T
  11     -6.2533628 -0.165098E-06  0.193E-03    1.52      18.3  T
  12     -6.2533628  0.142271E-08  0.863E-04    1.52      41.0  T
  13     -6.2533628 -0.773777E-08  0.222E-04    1.52     159.1  T
     SCC iter.                  ...        0 min,  0.002 sec
     gradient                   ...        0 min,  0.000 sec
 * total energy  :    -6.1362282 Eh     change       -0.6661825E-02 Eh
   gradient norm :     0.0234461 Eh/α   predicted    -0.7645140E-02 (  14.76%)
   displ. norm   :     0.5219331 α      lambda       -0.5208092E-02
   maximum displ.:     0.2878661 α      in ANC's #4, #1, #3, ...

........................................................................
.............................. CYCLE   15 ..............................
........................................................................
   1     -6.2357464 -0.623575E+01  0.228E+00    1.42       0.0  T
   2     -6.2301548  0.559160E-02  0.167E+00    1.43       1.0  T
   3     -5.8618692  0.368286E+00  0.413E+00    1.34       1.0  T
   4     -6.1427466 -0.280877E+00  0.221E+00    1.54       1.0  T
   5     -6.2311564 -0.884098E-01  0.556E-01    1.43       1.0  T
   6     -6.2360300 -0.487354E-02  0.261E-01    1.45       1.0  T
   7     -6.2361509 -0.120974E-03  0.231E-01    1.43       1.0  T
   8     -6.2354016  0.749380E-03  0.201E-01    1.44       1.0  T
   9     -6.2364725 -0.107098E-02  0.228E-02    1.43       1.5  T
  10     -6.2364740 -0.144742E-05  0.119E-02    1.43       3.0  T
  11     -6.2364740 -0.159727E-07  0.391E-03    1.43       9.0  T
  12     -6.2364742 -0.155575E-06  0.243E-03    1.43      14.6  T
  13     -6.2364742 -0.794671E-07  0.105E-03    1.43      33.6  T
  14     -6.2364742  0.223900E-08  0.693E-04    1.43      51.1  T
  15     -6.2364742 -0.431370E-08  0.345E-04    1.43     102.6  T
     SCC iter.                  ...        0 min,  0.002 sec
     gradient                   ...        0 min,  0.000 sec
 * total energy  :    -6.1372026 Eh     change       -0.9743935E-03 Eh
   gradient norm :     0.0486237 Eh/α   predicted    -0.3313425E-02 ( 240.05%)
   displ. norm   :     0.2876246 α      lambda       -0.5877784E-02
   maximum displ.:     0.1387844 α      in ANC's #9, #1, #10, ...

........................................................................
.............................. CYCLE   16 ..............................
........................................................................
   1     -6.2388574 -0.623886E+01  0.145E+00    1.41       0.0  T
   2     -6.2138068  0.250507E-01  0.126E+00    1.31       1.0  T
   3     -6.1170397  0.967671E-01  0.251E+00    1.52       1.0  T
   4     -6.2160771 -0.990374E-01  0.115E+00    1.48       1.0  T
   5     -6.2293376 -0.132605E-01  0.680E-01    1.38       1.0  T
   6     -6.2400660 -0.107284E-01  0.104E-01    1.40       1.0  T
   7     -6.2401716 -0.105537E-03  0.923E-02    1.39       1.0  T
   8     -6.2401314  0.401294E-04  0.438E-02    1.40       1.0  T
   9     -6.2401702 -0.387274E-04  0.216E-02    1.40       1.6  T
  10     -6.2401800 -0.980555E-05  0.528E-03    1.40       6.7  T
  11     -6.2401802 -0.266445E-06  0.930E-04    1.40      38.0  T
  12     -6.2401802 -0.254587E-08  0.485E-04    1.40      72.9  T
     SCC iter.                  ...        0 min,  0.002 sec
     gradient                   ...        0 min,  0.001 sec
 * total energy  :    -6.1387347 Eh     change       -0.1532114E-02 Eh
   gradient norm :     0.0445018 Eh/α   predicted    -0.3182023E-02 ( 107.69%)
   displ. norm   :     0.3059055 α      lambda       -0.7543708E-02
   maximum displ.:     0.1476667 α      in ANC's #9, #3, #6, ...

........................................................................
.............................. CYCLE   17 ..............................
........................................................................
   1     -6.2665912 -0.626659E+01  0.101E+00    1.51       0.0  T
   2     -6.2647851  0.180609E-02  0.674E-01    1.41       1.0  T
   3     -6.2137417  0.510434E-01  0.161E+00    1.64       1.0  T
   4     -6.2630696 -0.493279E-01  0.484E-01    1.53       1.0  T
   5     -6.2640810 -0.101138E-02  0.392E-01    1.46       1.0  T
   6     -6.2664848 -0.240383E-02  0.141E-01    1.46       1.0  T
   7     -6.2668214 -0.336524E-03  0.548E-02    1.46       1.0  T
   8     -6.2668788 -0.574433E-04  0.107E-02    1.46       3.3  T
   9     -6.2668787  0.118089E-06  0.494E-03    1.46       7.2  T
  10     -6.2668790 -0.264572E-06  0.153E-03    1.46      23.2  T
  11     -6.2668790 -0.114326E-07  0.649E-04    1.46      54.5  T
  12     -6.2668790 -0.116449E-08  0.162E-04    1.46     218.4  T
     SCC iter.                  ...        0 min,  0.001 sec
     gradient                   ...        0 min,  0.000 sec
 * total energy  :    -6.1410936 Eh     change       -0.2358888E-02 Eh
   gradient norm :     0.0407460 Eh/α   predicted    -0.4124817E-02 (  74.86%)
   displ. norm   :     0.4569437 α      lambda       -0.5949335E-02
   maximum displ.:     0.1921512 α      in ANC's #4, #7, #3, ...

........................................................................
.............................. CYCLE   18 ..............................
........................................................................
   1     -6.2459992 -0.624600E+01  0.208E+00    1.37       0.0  T
   2     -6.2426751  0.332403E-02  0.139E+00    1.47       1.0  T
   3     -5.6501872  0.592488E+00  0.438E+00    1.01       1.0  T
   4     -6.2144161 -0.564229E+00  0.146E+00    1.25       1.0  T
   5     -6.2390278 -0.246117E-01  0.573E-01    1.44       1.0  T
   6     -6.2444307 -0.540285E-02  0.339E-01    1.43       1.0  T
   7     -6.2458737 -0.144300E-02  0.206E-01    1.41       1.0  T
   8     -6.2464982 -0.624522E-03  0.547E-02    1.41       1.0  T
   9     -6.2464819  0.163311E-04  0.385E-02    1.41       1.0  T
  10     -6.2465064 -0.244832E-04  0.999E-03    1.41       3.5  T
  11     -6.2465072 -0.849274E-06  0.399E-03    1.41       8.9  T
  12     -6.2465074 -0.147714E-06  0.152E-03    1.41      23.2  T
  13     -6.2465074 -0.181133E-07  0.261E-04    1.41     135.6  T
  14     -6.2465074 -0.140459E-09  0.120E-04    1.41     295.2  T
     SCC iter.                  ...        0 min,  0.002 sec
     gradient                   ...        0 min,  0.000 sec
 * total energy  :    -6.1424903 Eh     change       -0.1396759E-02 Eh
   gradient norm :     0.0422966 Eh/α   predicted    -0.3595776E-02 ( 157.44%)
   displ. norm   :     0.1631328 α      lambda       -0.3646780E-02
   maximum displ.:     0.0780948 α      in ANC's #2, #12, #4, ...

........................................................................
.............................. CYCLE   19 ..............................
........................................................................
   1     -6.2545009 -0.625450E+01  0.493E-01    1.44       0.0  T
   2     -6.2528789  0.162204E-02  0.420E-01    1.40       1.0  T
   3     -6.2450101  0.786880E-02  0.681E-01    1.49       1.0  T
   4     -6.2489111 -0.390103E-02  0.586E-01    1.45       1.0  T
   5     -6.2545666 -0.565546E-02  0.650E-02    1.43       1.0  T
   6     -6.2546514 -0.848473E-04  0.293E-02    1.44       1.2  T
   7     -6.2546353  0.160824E-04  0.320E-02    1.43       1.1  T
   8     -6.2546544 -0.190504E-04  0.858E-03    1.44       4.1  T
   9     -6.2546556 -0.119179E-05  0.331E-03    1.44      10.7  T
  10     -6.2546556 -0.608067E-07  0.123E-03    1.44      28.7  T
  11     -6.2546557 -0.242951E-07  0.244E-04    1.44     144.9  T
  12     -6.2546557 -0.188017E-09  0.849E-05    1.44     416.3  T
     SCC iter.                  ...        0 min,  0.001 sec
     gradient                   ...        0 min,  0.000 sec
 * total energy  :    -6.1439700 Eh     change       -0.1479701E-02 Eh
   gradient norm :     0.0184893 Eh/α   predicted    -0.1871914E-02 (  26.51%)
   displ. norm   :     0.2493532 α      lambda       -0.2159273E-02
   maximum displ.:     0.1432270 α      in ANC's #2, #9, #8, ...

........................................................................
.............................. CYCLE   20 ..............................
........................................................................
   1     -6.2554550 -0.625546E+01  0.938E-01    1.44       0.0  T
   2     -6.2465783  0.887670E-02  0.887E-01    1.44       1.0  T
   3     -6.2213512  0.252271E-01  0.135E+00    1.43       1.0  T
   4     -6.2466639 -0.253128E-01  0.767E-01    1.35       1.0  T
   5     -6.2526495 -0.598553E-02  0.362E-01    1.48       1.0  T
   6     -6.2558407 -0.319125E-02  0.109E-01    1.43       1.0  T
   7     -6.2560233 -0.182579E-03  0.615E-02    1.43       1.0  T
   8     -6.2560377 -0.144675E-04  0.135E-02    1.43       2.6  T
   9     -6.2560376  0.131726E-06  0.828E-03    1.43       4.3  T
  10     -6.2560386 -0.945697E-06  0.202E-03    1.43      17.5  T
  11     -6.2560386 -0.645793E-08  0.139E-03    1.43      25.5  T
  12     -6.2560386 -0.893031E-08  0.350E-04    1.43     101.2  T
  13     -6.2560386 -0.163674E-10  0.127E-04    1.43     277.9  T
     SCC iter.                  ...        0 min,  0.002 sec
     gradient                   ...        0 min,  0.000 sec
 * total energy  :    -6.1441477 Eh     change       -0.1776982E-03 Eh
   gradient norm :     0.0310423 Eh/α   predicted    -0.1146764E-02 ( 545.34%)
   displ. norm   :     0.2155154 α      lambda       -0.2190266E-02
   maximum displ.:     0.1067262 α      in ANC's #9, #1, #4, ...
 * RMSD in coord.:     2.0651242 α      energy gain  -0.5682080E+00 Eh

generating ANC from model Hessian ...
Using Lindh-Hessian (1995)
 Shifting diagonal of input Hessian by    1.0462929210305479E-002
 Lowest  eigenvalues of input Hessian
    0.010000    0.010328    0.000000    0.000000    0.000000    0.000000
    0.000000    0.000000    0.010481    0.010522    0.010747    0.010968
    0.012198    0.013919    0.042221    0.062054    0.093284    0.137521
 Highest eigenvalues
    0.237863    0.530581    0.571469    0.664546    0.786501    1.205442


........................................................................
.............................. CYCLE   21 ..............................
........................................................................
   1     -6.2550564 -0.625506E+01  0.939E-01    1.43       0.0  T
   2     -6.2532342  0.182225E-02  0.757E-01    1.43       1.0  T
   3     -6.2267705  0.264636E-01  0.128E+00    1.47       1.0  T
   4     -6.2330455 -0.627497E-02  0.957E-01    1.47       1.0  T
   5     -6.2551517 -0.221062E-01  0.162E-01    1.41       1.0  T
   6     -6.2552225 -0.708519E-04  0.918E-02    1.45       1.0  T
   7     -6.2553148 -0.922278E-04  0.709E-02    1.44       1.0  T
   8     -6.2553171 -0.233367E-05  0.231E-02    1.44       1.5  T
   9     -6.2553295 -0.123733E-04  0.746E-03    1.44       4.7  T
  10     -6.2553300 -0.474118E-06  0.151E-03    1.44      23.4  T
  11     -6.2553299  0.910903E-08  0.934E-04    1.44      37.9  T
  12     -6.2553300 -0.134010E-07  0.282E-04    1.44     125.3  T
     SCC iter.                  ...        0 min,  0.001 sec
     gradient                   ...        0 min,  0.000 sec
 * total energy  :    -6.1454358 Eh     change       -0.1288075E-02 Eh
   gradient norm :     0.0113198 Eh/α   predicted     0.0000000E+00 (-100.00%)
   displ. norm   :     0.2280493 α      lambda       -0.8336255E-03
   maximum displ.:     0.1395060 α      in ANC's #5, #3, #7, ...

........................................................................
.............................. CYCLE   22 ..............................
........................................................................
   1     -6.2581606 -0.625816E+01  0.783E-01    1.45       0.0  T
   2     -6.2574467  0.713893E-03  0.517E-01    1.45       1.0  T
   3     -6.2052948  0.521519E-01  0.153E+00    1.44       1.0  T
   4     -6.2577130 -0.524183E-01  0.169E-01    1.44       1.0  T
   5     -6.2581342 -0.421126E-03  0.738E-02    1.45       1.0  T
   6     -6.2581290  0.512976E-05  0.742E-02    1.44       1.0  T
   7     -6.2581955 -0.664941E-04  0.389E-02    1.44       1.0  T
   8     -6.2582096 -0.140985E-04  0.782E-03    1.44       4.5  T
   9     -6.2582103 -0.657187E-06  0.291E-03    1.44      12.1  T
  10     -6.2582103 -0.384388E-07  0.164E-03    1.44      21.6  T
  11     -6.2582103 -0.189286E-07  0.290E-04    1.44     122.1  T
  12     -6.2582103 -0.170912E-09  0.891E-05    1.44     396.9  T
     SCC iter.                  ...        0 min,  0.002 sec
     gradient                   ...        0 min,  0.001 sec
 * total energy  :    -6.1458969 Eh     change       -0.4610988E-03 Eh
   gradient norm :     0.0073976 Eh/α   predicted    -0.4384894E-03 (  -4.90%)
   displ. norm   :     0.5050796 α      lambda       -0.1719349E-02
   maximum displ.:     0.2606305 α      in ANC's #5, #7, #8, ...

........................................................................
.............................. CYCLE   23 ..............................
........................................................................
   1     -6.2577609 -0.625776E+01  0.157E+00    1.40       0.0  T
   2     -6.2534971  0.426386E-02  0.109E+00    1.43       1.0  T
   3     -6.0836252  0.169872E+00  0.296E+00    1.32       1.0  T
   4     -6.2525362 -0.168911E+00  0.542E-01    1.37       1.0  T
   5     -6.2577448 -0.520861E-02  0.173E-01    1.42       1.0  T
   6     -6.2580212 -0.276314E-03  0.102E-01    1.41       1.0  T
   7     -6.2577496  0.271608E-03  0.118E-01    1.40       1.0  T
   8     -6.2580506 -0.301049E-03  0.180E-02    1.41       2.0  T
   9     -6.2580537 -0.306476E-05  0.115E-02    1.41       3.1  T
  10     -6.2580545 -0.788741E-06  0.451E-03    1.41       7.8  T
  11     -6.2580546 -0.151368E-06  0.830E-04    1.41      42.6  T
  12     -6.2580546  0.156035E-08  0.501E-04    1.41      70.6  T
     SCC iter.                  ...        0 min,  0.002 sec
     gradient                   ...        0 min,  0.000 sec
 * total energy  :    -6.1460272 Eh     change       -0.1302489E-03 Eh
   gradient norm :     0.0144654 Eh/α   predicted    -0.1078980E-02 ( 728.40%)
   displ. norm   :     0.1675729 α      lambda       -0.1179723E-02
   maximum displ.:     0.1182107 α      in ANC's #3, #6, #8, ...

........................................................................
.............................. CYCLE   24 ..............................
........................................................................
   1     -6.2639154 -0.626392E+01  0.490E-01    1.45       0.0  T
   2     -6.2638820  0.334467E-04  0.303E-01    1.45       1.0  T
   3     -6.2600040  0.387795E-02  0.418E-01    1.41       1.0  T
   4     -6.2631842 -0.318017E-02  0.181E-01    1.45       1.0  T
   5     -6.2639020 -0.717807E-03  0.455E-02    1.45       1.0  T
   6     -6.2639257 -0.236854E-04  0.169E-02    1.44       2.1  T
   7     -6.2639242  0.149015E-05  0.117E-02    1.44       3.0  T
   8     -6.2639270 -0.285186E-05  0.275E-03    1.44      12.9  T
   9     -6.2639271 -0.846364E-07  0.709E-04    1.44      49.9  T
  10     -6.2639271 -0.383503E-08  0.196E-04    1.44     180.5  T
     SCC iter.                  ...        0 min,  0.001 sec
     gradient                   ...        0 min,  0.000 sec
 * total energy  :    -6.1463897 Eh     change       -0.3625016E-03 Eh
   gradient norm :     0.0139655 Eh/α   predicted    -0.6064259E-03 (  67.29%)
   displ. norm   :     0.1480355 α      lambda       -0.8244243E-03
   maximum displ.:     0.0993103 α      in ANC's #8, #3, #5, ...

........................................................................
.............................. CYCLE   25 ..............................
........................................................................
   1     -6.2575830 -0.625758E+01  0.509E-01    1.48       0.0  T
   2     -6.2573626  0.220393E-03  0.332E-01    1.47       1.0  T
   3     -6.2306895  0.266732E-01  0.976E-01    1.42       1.0  T
   4     -6.2569582 -0.262687E-01  0.214E-01    1.48       1.0  T
   5     -6.2575624 -0.604146E-03  0.700E-02    1.48       1.0  T
   6     -6.2576104 -0.480486E-04  0.273E-02    1.47       1.3  T
   7     -6.2575930  0.174114E-04  0.332E-02    1.47       1.1  T
   8     -6.2576135 -0.204610E-04  0.493E-03    1.47       7.2  T
   9     -6.2576138 -0.376367E-06  0.163E-03    1.47      21.7  T
  10     -6.2576138 -0.145236E-07  0.512E-04    1.47      69.1  T
  11     -6.2576138 -0.189461E-08  0.116E-04    1.47     305.3  T
     SCC iter.                  ...        0 min,  0.002 sec
     gradient                   ...        0 min,  0.000 sec
 * total energy  :    -6.1463243 Eh     change        0.6538505E-04 Eh
   gradient norm :     0.0115426 Eh/α   predicted    -0.4212443E-03 (-744.25%)
   displ. norm   :     0.1048283 α      lambda       -0.6410480E-03
   maximum displ.:     0.0623121 α      in ANC's #8, #7, #6, ...

........................................................................
.............................. CYCLE   26 ..............................
........................................................................
   1     -6.2607913 -0.626079E+01  0.377E-01    1.46       0.0  T
   2     -6.2605746  0.216691E-03  0.257E-01    1.46       1.0  T
   3     -6.2451903  0.153844E-01  0.808E-01    1.46       1.0  T
   4     -6.2607450 -0.155547E-01  0.684E-02    1.45       1.0  T
   5     -6.2607791 -0.341361E-04  0.406E-02    1.46       1.0  T
   6     -6.2608040 -0.248424E-04  0.158E-02    1.46       2.2  T
   7     -6.2607995  0.452975E-05  0.242E-02    1.46       1.5  T
   8     -6.2608076 -0.816538E-05  0.380E-03    1.46       9.3  T
   9     -6.2608077 -0.129404E-06  0.129E-03    1.46      27.4  T
  10     -6.2608078 -0.527221E-08  0.540E-04    1.46      65.5  T
  11     -6.2608078 -0.143404E-08  0.223E-04    1.46     158.4  T
     SCC iter.                  ...        0 min,  0.001 sec
     gradient                   ...        0 min,  0.000 sec
 * total energy  :    -6.1466723 Eh     change       -0.3479878E-03 Eh
   gradient norm :     0.0022247 Eh/α   predicted    -0.3240467E-03 (  -6.88%)
   displ. norm   :     0.1026552 α      lambda       -0.6208415E-04
   maximum displ.:     0.0658842 α      in ANC's #7, #5, #3, ...

........................................................................
.............................. CYCLE   27 ..............................
........................................................................
   1     -6.2604316 -0.626043E+01  0.339E-01    1.46       0.0  T
   2     -6.2603523  0.792874E-04  0.225E-01    1.47       1.0  T
   3     -6.2539739  0.637837E-02  0.590E-01    1.44       1.0  T
   4     -6.2599602 -0.598635E-02  0.137E-01    1.45       1.0  T
   5     -6.2604254 -0.465150E-03  0.328E-02    1.47       1.1  T
   6     -6.2604382 -0.127774E-04  0.131E-02    1.46       2.7  T
   7     -6.2604398 -0.159319E-05  0.310E-03    1.46      11.4  T
   8     -6.2604398 -0.123925E-07  0.221E-03    1.46      16.0  T
   9     -6.2604398 -0.354445E-07  0.763E-04    1.46      46.3  T
  10     -6.2604398 -0.809774E-08  0.288E-04    1.46     122.7  T
     SCC iter.                  ...        0 min,  0.001 sec
     gradient                   ...        0 min,  0.000 sec
 * total energy  :    -6.1467208 Eh     change       -0.4849549E-04 Eh
   gradient norm :     0.0029964 Eh/α   predicted    -0.3137032E-04 ( -35.31%)
   displ. norm   :     0.1985856 α      lambda       -0.1022027E-03
   maximum displ.:     0.1365662 α      in ANC's #7, #5, #1, ...

........................................................................
.............................. CYCLE   28 ..............................
........................................................................
   1     -6.2607735 -0.626077E+01  0.588E-01    1.48       0.0  T
   2     -6.2606899  0.836050E-04  0.382E-01    1.49       1.0  T
   3     -6.2499288  0.107611E-01  0.775E-01    1.45       1.0  T
   4     -6.2600515 -0.101227E-01  0.169E-01    1.47       1.0  T
   5     -6.2607243 -0.672784E-03  0.635E-02    1.49       1.0  T
   6     -6.2607856 -0.613013E-04  0.300E-02    1.48       1.2  T
   7     -6.2607868 -0.120865E-05  0.133E-02    1.48       2.7  T
   8     -6.2607892 -0.238531E-05  0.286E-03    1.48      12.4  T
   9     -6.2607892  0.277723E-08  0.143E-03    1.48      24.8  T
  10     -6.2607892 -0.275026E-07  0.461E-04    1.48      76.8  T
  11     -6.2607892 -0.306064E-08  0.175E-04    1.48     202.3  T
     SCC iter.                  ...        0 min,  0.001 sec
     gradient                   ...        0 min,  0.000 sec
 * total energy  :    -6.1467854 Eh     change       -0.6464224E-04 Eh
   gradient norm :     0.0020095 Eh/α   predicted    -0.5311440E-04 ( -17.83%)
   displ. norm   :     0.1281461 α      lambda       -0.3838646E-04
   maximum displ.:     0.0862315 α      in ANC's #7, #5, #1, ...

........................................................................
.............................. CYCLE   29 ..............................
........................................................................
   1     -6.2606959 -0.626070E+01  0.432E-01    1.49       0.0  T
   2     -6.2606629  0.330071E-04  0.282E-01    1.50       1.0  T
   3     -6.2574967  0.316619E-02  0.490E-01    1.44       1.0  T
   4     -6.2601628 -0.266614E-02  0.142E-01    1.49       1.0  T
   5     -6.2606898 -0.526923E-03  0.372E-02    1.49       1.0  T
   6     -6.2607023 -0.125734E-04  0.213E-02    1.48       1.7  T
   7     -6.2607047 -0.238299E-05  0.689E-03    1.49       5.1  T
   8     -6.2607050 -0.302178E-06  0.249E-03    1.49      14.2  T
   9     -6.2607051 -0.225854E-07  0.505E-04    1.49      70.0  T
  10     -6.2607051 -0.103654E-08  0.166E-04    1.49     212.5  T
     SCC iter.                  ...        0 min,  0.001 sec
     gradient                   ...        0 min,  0.000 sec
 * total energy  :    -6.1468062 Eh     change       -0.2077711E-04 Eh
   gradient norm :     0.0022754 Eh/α   predicted    -0.1950644E-04 (  -6.12%)
   displ. norm   :     0.0638228 α      lambda       -0.1997450E-04
   maximum displ.:     0.0375422 α      in ANC's #7, #5, #6, ...

........................................................................
.............................. CYCLE   30 ..............................
........................................................................
   1     -6.2615165 -0.626152E+01  0.182E-01    1.50       0.0  T
   2     -6.2615129  0.359379E-05  0.119E-01    1.49       1.0  T
   3     -6.2611737  0.339198E-03  0.169E-01    1.52       1.0  T
   4     -6.2614710 -0.297313E-03  0.444E-02    1.50       1.0  T
   5     -6.2615000 -0.290714E-04  0.279E-02    1.49       1.3  T
   6     -6.2615179 -0.178162E-04  0.891E-03    1.49       4.0  T
   7     -6.2615180 -0.177227E-06  0.274E-03    1.49      12.9  T
   8     -6.2615181 -0.797149E-07  0.784E-04    1.49      45.1  T
   9     -6.2615181 -0.195310E-08  0.541E-04    1.49      65.3  T
     SCC iter.                  ...        0 min,  0.001 sec
     gradient                   ...        0 min,  0.001 sec
 * total energy  :    -6.1468171 Eh     change       -0.1086607E-04 Eh
   gradient norm :     0.0008029 Eh/α   predicted    -0.1002815E-04 (  -7.71%)
   displ. norm   :     0.0950566 α      lambda       -0.9555703E-05
   maximum displ.:     0.0591132 α      in ANC's #5, #7, #1, ...

........................................................................
.............................. CYCLE   31 ..............................
........................................................................
   1     -6.2611359 -0.626114E+01  0.367E-01    1.50       0.0  T
   2     -6.2611189  0.169947E-04  0.241E-01    1.50       1.0  T
   3     -6.2581499  0.296898E-02  0.400E-01    1.47       1.0  T
   4     -6.2609068 -0.275690E-02  0.953E-02    1.49       1.0  T
   5     -6.2611351 -0.228282E-03  0.300E-02    1.50       1.2  T
   6     -6.2611384 -0.323637E-05  0.125E-02    1.50       2.8  T
   7     -6.2611400 -0.160031E-05  0.531E-03    1.50       6.7  T
   8     -6.2611402 -0.280898E-06  0.216E-03    1.50      16.4  T
   9     -6.2611403 -0.231401E-07  0.289E-04    1.50     122.2  T
  10     -6.2611403 -0.268042E-09  0.863E-05    1.50     409.9  T
     SCC iter.                  ...        0 min,  0.001 sec
     gradient                   ...        0 min,  0.000 sec
 * total energy  :    -6.1468260 Eh     change       -0.8929947E-05 Eh
   gradient norm :     0.0012836 Eh/α   predicted    -0.4795438E-05 ( -46.30%)
   displ. norm   :     0.1228850 α      lambda       -0.1769335E-04
   maximum displ.:     0.0635514 α      in ANC's #5, #1, #4, ...

........................................................................
.............................. CYCLE   32 ..............................
........................................................................
   1     -6.2616028 -0.626160E+01  0.492E-01    1.50       0.0  T
   2     -6.2615928  0.993918E-05  0.320E-01    1.50       1.0  T
   3     -6.2597953  0.179758E-02  0.286E-01    1.53       1.0  T
   4     -6.2613338 -0.153854E-02  0.117E-01    1.50       1.0  T
   5     -6.2616066 -0.272753E-03  0.309E-02    1.50       1.1  T
   6     -6.2615981  0.841238E-05  0.313E-02    1.51       1.1  T
   7     -6.2616096 -0.114759E-04  0.465E-03    1.50       7.6  T
   8     -6.2616099 -0.311145E-06  0.209E-03    1.50      16.9  T
   9     -6.2616100 -0.199992E-07  0.370E-04    1.50      95.4  T
  10     -6.2616100 -0.134397E-08  0.164E-04    1.50     215.3  T
     SCC iter.                  ...        0 min,  0.001 sec
     gradient                   ...        0 min,  0.000 sec
 * total energy  :    -6.1468418 Eh     change       -0.1580474E-04 Eh
   gradient norm :     0.0024883 Eh/α   predicted    -0.8907049E-05 ( -43.64%)
   displ. norm   :     0.0909885 α      lambda       -0.2535860E-04
   maximum displ.:     0.0523429 α      in ANC's #1, #5, #4, ...

........................................................................
.............................. CYCLE   33 ..............................
........................................................................
   1     -6.2614702 -0.626147E+01  0.301E-01    1.50       0.0  T
   2     -6.2614085  0.617207E-04  0.202E-01    1.49       1.0  T
   3     -6.2597714  0.163711E-02  0.402E-01    1.54       1.0  T
   4     -6.2611524 -0.138098E-02  0.109E-01    1.50       1.0  T
   5     -6.2613931 -0.240707E-03  0.626E-02    1.49       1.0  T
   6     -6.2614774 -0.843231E-04  0.226E-02    1.50       1.6  T
   7     -6.2614829 -0.554116E-05  0.323E-03    1.50      10.9  T
   8     -6.2614829 -0.349276E-08  0.188E-03    1.50      18.8  T
   9     -6.2614830 -0.511714E-07  0.410E-04    1.50      86.2  T
  10     -6.2614830  0.554712E-10  0.290E-04    1.50     122.0  T
     SCC iter.                  ...        0 min,  0.001 sec
     gradient                   ...        0 min,  0.000 sec
 * total energy  :    -6.1468615 Eh     change       -0.1968456E-04 Eh
   gradient norm :     0.0022065 Eh/α   predicted    -0.1278357E-04 ( -35.06%)
   displ. norm   :     0.1837298 α      lambda       -0.3862276E-04
   maximum displ.:     0.1019330 α      in ANC's #1, #7, #4, ...

........................................................................
.............................. CYCLE   34 ..............................
........................................................................
   1     -6.2610539 -0.626105E+01  0.576E-01    1.50       0.0  T
   2     -6.2608946  0.159287E-03  0.378E-01    1.49       1.0  T
   3     -6.2556459  0.524873E-02  0.720E-01    1.59       1.0  T
   4     -6.2608245 -0.517866E-02  0.102E-01    1.49       1.0  T
   5     -6.2606510  0.173558E-03  0.136E-01    1.50       1.0  T
   6     -6.2610787 -0.427734E-03  0.385E-02    1.50       1.0  T
   7     -6.2610907 -0.119963E-04  0.709E-03    1.50       5.0  T
   8     -6.2610907  0.105641E-08  0.384E-03    1.50       9.2  T
   9     -6.2610909 -0.190467E-06  0.123E-03    1.50      28.8  T
  10     -6.2610909 -0.107190E-07  0.593E-04    1.50      59.6  T
  11     -6.2610909 -0.231690E-08  0.221E-04    1.50     160.0  T
     SCC iter.                  ...        0 min,  0.002 sec
     gradient                   ...        0 min,  0.000 sec
 * total energy  :    -6.1468881 Eh     change       -0.2666552E-04 Eh
   gradient norm :     0.0020892 Eh/α   predicted    -0.1996387E-04 ( -25.13%)
   displ. norm   :     0.1522135 α      lambda       -0.2830722E-04
   maximum displ.:     0.0961047 α      in ANC's #7, #1, #3, ...

........................................................................
.............................. CYCLE   35 ..............................
........................................................................
   1     -6.2615126 -0.626151E+01  0.307E-01    1.50       0.0  T
   2     -6.2612901  0.222560E-03  0.221E-01    1.48       1.0  T
   3     -6.2601505  0.113955E-02  0.395E-01    1.54       1.0  T
   4     -6.2606762 -0.525666E-03  0.176E-01    1.49       1.0  T
   5     -6.2613846 -0.708400E-03  0.848E-02    1.49       1.0  T
   6     -6.2615427 -0.158140E-03  0.274E-02    1.49       1.3  T
   7     -6.2615530 -0.102284E-04  0.509E-03    1.49       6.9  T
   8     -6.2615530 -0.623563E-07  0.326E-03    1.49      10.8  T
   9     -6.2615532 -0.166616E-06  0.697E-04    1.49      50.7  T
  10     -6.2615532 -0.266445E-08  0.407E-04    1.49      86.9  T
     SCC iter.                  ...        0 min,  0.001 sec
     gradient                   ...        0 min,  0.000 sec
 * total energy  :    -6.1469044 Eh     change       -0.1624941E-04 Eh
   gradient norm :     0.0015987 Eh/α   predicted    -0.1448039E-04 ( -10.89%)
   displ. norm   :     0.4056146 α      lambda       -0.2947675E-04
   maximum displ.:     0.2540616 α      in ANC's #1, #4, #5, ...

........................................................................
.............................. CYCLE   36 ..............................
........................................................................
   1     -6.2583234 -0.625832E+01  0.132E+00    1.49       0.0  T
   2     -6.2581839  0.139468E-03  0.856E-01    1.48       1.0  T
   3     -6.2445428  0.136411E-01  0.113E+00    1.61       1.0  T
   4     -6.2570523 -0.125095E-01  0.234E-01    1.47       1.0  T
   5     -6.2566624  0.389868E-03  0.267E-01    1.48       1.0  T
   6     -6.2583844 -0.172199E-02  0.748E-02    1.51       1.0  T
   7     -6.2584047 -0.202898E-04  0.203E-02    1.49       1.7  T
   8     -6.2584084 -0.370719E-05  0.835E-03    1.49       4.2  T
   9     -6.2584093 -0.948775E-06  0.230E-03    1.49      15.4  T
  10     -6.2584093 -0.680728E-08  0.868E-04    1.49      40.7  T
  11     -6.2584094 -0.389708E-08  0.352E-04    1.49     100.4  T
     SCC iter.                  ...        0 min,  0.002 sec
     gradient                   ...        0 min,  0.001 sec
 * total energy  :    -6.1468621 Eh     change        0.4231618E-04 Eh
   gradient norm :     0.0078839 Eh/α   predicted    -0.1581393E-04 (-137.37%)
   displ. norm   :     0.1492163 α      lambda       -0.1189443E-03
   maximum displ.:     0.0873909 α      in ANC's #1, #5, #4, ...

........................................................................
.............................. CYCLE   37 ..............................
........................................................................
   1     -6.2606200 -0.626062E+01  0.553E-01    1.49       0.0  T
   2     -6.2606151  0.480956E-05  0.357E-01    1.49       1.0  T
   3     -6.2585778  0.203733E-02  0.287E-01    1.51       1.0  T
   4     -6.2605540 -0.197619E-02  0.713E-02    1.50       1.0  T
   5     -6.2605943 -0.403400E-04  0.596E-02    1.48       1.0  T
   6     -6.2605733  0.210606E-04  0.545E-02    1.49       1.0  T
   7     -6.2606299 -0.566256E-04  0.631E-03    1.49       5.6  T
   8     -6.2606302 -0.282172E-06  0.292E-03    1.49      12.1  T
   9     -6.2606303 -0.101078E-06  0.794E-04    1.49      44.5  T
  10     -6.2606303  0.150393E-09  0.309E-04    1.49     114.5  T
     SCC iter.                  ...        0 min,  0.002 sec
     gradient                   ...        0 min,  0.001 sec
 * total energy  :    -6.1469261 Eh     change       -0.6399905E-04 Eh
   gradient norm :     0.0025329 Eh/α   predicted    -0.6079601E-04 (  -5.00%)
   displ. norm   :     0.0494743 α      lambda       -0.1744849E-04
   maximum displ.:     0.0344706 α      in ANC's #1, #2, #7, ...

........................................................................
.............................. CYCLE   38 ..............................
........................................................................
   1     -6.2612142 -0.626121E+01  0.103E-01    1.49       0.0  T
   2     -6.2611981  0.160867E-04  0.729E-02    1.49       1.0  T
   3     -6.2610551  0.143007E-03  0.130E-01    1.51       1.0  T
   4     -6.2611771 -0.121958E-03  0.389E-02    1.49       1.0  T
   5     -6.2612127 -0.356467E-04  0.143E-02    1.49       2.5  T
   6     -6.2612170 -0.423969E-05  0.549E-03    1.49       6.4  T
   7     -6.2612171 -0.140433E-06  0.121E-03    1.49      29.2  T
   8     -6.2612171 -0.745945E-08  0.616E-04    1.49      57.4  T
   9     -6.2612171 -0.320629E-08  0.229E-04    1.49     154.4  T
     SCC iter.                  ...        0 min,  0.001 sec
     gradient                   ...        0 min,  0.001 sec
 * total energy  :    -6.1469406 Eh     change       -0.1454598E-04 Eh
   gradient norm :     0.0014907 Eh/α   predicted    -0.8746058E-05 ( -39.87%)
   displ. norm   :     0.3366748 α      lambda       -0.4478765E-04
   maximum displ.:     0.2414761 α      in ANC's #1, #2, #7, ...

........................................................................
.............................. CYCLE   39 ..............................
........................................................................
   1     -6.2619423 -0.626194E+01  0.815E-01    1.49       0.0  T
   2     -6.2615871  0.355195E-03  0.540E-01    1.46       1.0  T
   3     -6.2485282  0.130589E-01  0.111E+00    1.61       1.0  T
   4     -6.2577302 -0.920199E-02  0.387E-01    1.48       1.0  T
   5     -6.2618095 -0.407931E-02  0.103E-01    1.47       1.0  T
   6     -6.2620076 -0.198159E-03  0.428E-02    1.49       1.0  T
   7     -6.2620151 -0.749992E-05  0.153E-02    1.48       2.3  T
   8     -6.2620161 -0.989871E-06  0.554E-03    1.48       6.4  T
   9     -6.2620166 -0.455747E-06  0.155E-03    1.48      22.8  T
  10     -6.2620166 -0.182193E-07  0.878E-04    1.48      40.3  T
  11     -6.2620166 -0.140821E-07  0.332E-04    1.48     106.4  T
     SCC iter.                  ...        0 min,  0.002 sec
     gradient                   ...        0 min,  0.000 sec
 * total energy  :    -6.1469993 Eh     change       -0.5867189E-04 Eh
   gradient norm :     0.0025988 Eh/α   predicted    -0.2352195E-04 ( -59.91%)
   displ. norm   :     0.9241565 α      lambda       -0.1795363E-03
   maximum displ.:     0.6586489 α      in ANC's #1, #2, #7, ...

........................................................................
.............................. CYCLE   40 ..............................
........................................................................
   1     -6.2551932 -0.625519E+01  0.230E+00    1.43       0.0  T
   2     -6.2534707  0.172248E-02  0.148E+00    1.42       1.0  T
   3     -5.9646265  0.288844E+00  0.396E+00    1.32       1.0  T
   4     -6.2222675 -0.257641E+00  0.114E+00    1.54       1.0  T
   5     -6.2550097 -0.327422E-01  0.237E-01    1.43       1.0  T
   6     -6.2554149 -0.405149E-03  0.143E-01    1.45       1.0  T
   7     -6.2553484  0.664720E-04  0.123E-01    1.43       1.0  T
   8     -6.2554987 -0.150331E-03  0.186E-02    1.45       1.9  T
   9     -6.2554968  0.193765E-05  0.143E-02    1.45       2.5  T
  10     -6.2555006 -0.383434E-05  0.331E-03    1.45      10.7  T
  11     -6.2555009 -0.299490E-06  0.107E-03    1.45      33.0  T
  12     -6.2555009 -0.483085E-08  0.288E-04    1.45     122.7  T
  13     -6.2555009  0.595114E-09  0.230E-04    1.45     153.5  T
     SCC iter.                  ...        0 min,  0.002 sec
     gradient                   ...        0 min,  0.000 sec
 * total energy  :    -6.1469709 Eh     change        0.2842466E-04 Eh
   gradient norm :     0.0159928 Eh/α   predicted    -0.1664346E-03 (-685.53%)
   displ. norm   :     0.2268496 α      lambda       -0.6162156E-03
   maximum displ.:     0.1628966 α      in ANC's #1, #2, #5, ...

........................................................................
.............................. CYCLE   41 ..............................
........................................................................
   1     -6.2613209 -0.626132E+01  0.757E-01    1.48       0.0  T
   2     -6.2604183  0.902596E-03  0.505E-01    1.46       1.0  T
   3     -6.2008132  0.596051E-01  0.155E+00    1.52       1.0  T
   4     -6.2596994 -0.588863E-01  0.287E-01    1.52       1.0  T
   5     -6.2611235 -0.142411E-02  0.127E-01    1.47       1.0  T
   6     -6.2613764 -0.252832E-03  0.383E-02    1.47       1.0  T
   7     -6.2613470  0.293532E-04  0.397E-02    1.47       1.0  T
   8     -6.2613834 -0.363940E-04  0.519E-03    1.47       6.8  T
   9     -6.2613835 -0.131165E-06  0.303E-03    1.47      11.6  T
  10     -6.2613836 -0.217452E-07  0.668E-04    1.47      52.9  T
  11     -6.2613836  0.257977E-09  0.407E-04    1.47      86.9  T
     SCC iter.                  ...        0 min,  0.001 sec
     gradient                   ...        0 min,  0.000 sec
 * total energy  :    -6.1472030 Eh     change       -0.2321140E-03 Eh
   gradient norm :     0.0063499 Eh/α   predicted    -0.3239612E-03 (  39.57%)
   displ. norm   :     0.4589810 α      lambda       -0.2393515E-03
   maximum displ.:     0.2791939 α      in ANC's #1, #7, #3, ...

........................................................................
.............................. CYCLE   42 ..............................
........................................................................
   1     -6.2601470 -0.626015E+01  0.814E-01    1.44       0.0  T
   2     -6.2595797  0.567319E-03  0.527E-01    1.42       1.0  T
   3     -6.2473848  0.121949E-01  0.113E+00    1.56       1.0  T
   4     -6.2541400 -0.675517E-02  0.448E-01    1.44       1.0  T
   5     -6.2591936 -0.505355E-02  0.216E-01    1.43       1.0  T
   6     -6.2601933 -0.999717E-03  0.793E-02    1.45       1.0  T
   7     -6.2602679 -0.745949E-04  0.259E-02    1.44       1.4  T
   8     -6.2602718 -0.392574E-05  0.994E-03    1.44       3.6  T
   9     -6.2602736 -0.177938E-05  0.252E-03    1.44      14.0  T
  10     -6.2602736 -0.278194E-07  0.136E-03    1.44      26.0  T
  11     -6.2602736 -0.256915E-07  0.781E-04    1.44      45.3  T
  12     -6.2602736 -0.896005E-08  0.120E-04    1.44     293.8  T
     SCC iter.                  ...        0 min,  0.001 sec
     gradient                   ...        0 min,  0.000 sec
 * total energy  :    -6.1475104 Eh     change       -0.3073796E-03 Eh
   gradient norm :     0.0062753 Eh/α   predicted    -0.1448867E-03 ( -52.86%)
   displ. norm   :     0.5782599 α      lambda       -0.5083534E-03
   maximum displ.:     0.3454030 α      in ANC's #1, #7, #2, ...
 * RMSD in coord.:     1.0576790 α      energy gain  -0.3362612E-02 Eh

generating ANC from model Hessian ...
Using Lindh-Hessian (1995)
 Shifting diagonal of input Hessian by    1.0423630755897372E-002
 Lowest  eigenvalues of input Hessian
    0.010000    0.010237    0.010329    0.010372    0.000000    0.000000
    0.000000    0.000000    0.000000    0.000000    0.010492    0.010588
    0.010914    0.011379    0.020647    0.043828    0.067121    0.137746
 Highest eigenvalues
    0.231648    0.538391    0.552302    0.664846    0.781840    1.213911


........................................................................
.............................. CYCLE   43 ..............................
........................................................................
   1     -6.2572515 -0.625725E+01  0.111E+00    1.41       0.0  T
   2     -6.2568284  0.423058E-03  0.710E-01    1.39       1.0  T
   3     -6.2401378  0.166906E-01  0.131E+00    1.55       1.0  T
   4     -6.2545256 -0.143878E-01  0.311E-01    1.40       1.0  T
   5     -6.2544797  0.459308E-04  0.342E-01    1.40       1.0  T
   6     -6.2572887 -0.280901E-02  0.102E-01    1.42       1.0  T
   7     -6.2573867 -0.979295E-04  0.292E-02    1.41       1.2  T
   8     -6.2573908 -0.412959E-05  0.983E-03    1.41       3.6  T
   9     -6.2573910 -0.234206E-06  0.413E-03    1.41       8.6  T
  10     -6.2573912 -0.227503E-06  0.128E-03    1.41      27.6  T
  11     -6.2573912  0.543095E-08  0.914E-04    1.41      38.7  T
  12     -6.2573912 -0.131578E-07  0.132E-04    1.41     267.7  T
     SCC iter.                  ...        0 min,  0.002 sec
     gradient                   ...        0 min,  0.000 sec
 * total energy  :    -6.1480054 Eh     change       -0.4950347E-03 Eh
   gradient norm :     0.0121863 Eh/α   predicted     0.0000000E+00 (-100.00%)
   displ. norm   :     0.1901020 α      lambda       -0.8711737E-03
   maximum displ.:     0.0774102 α      in ANC's #6, #2, #7, ...

........................................................................
.............................. CYCLE   44 ..............................
........................................................................
   1     -6.2594215 -0.625942E+01  0.822E-01    1.41       0.0  T
   2     -6.2589580  0.463479E-03  0.567E-01    1.38       1.0  T
   3     -6.2421061  0.168519E-01  0.119E+00    1.52       1.0  T
   4     -6.2508637 -0.875759E-02  0.532E-01    1.42       1.0  T
   5     -6.2593368 -0.847316E-02  0.948E-02    1.40       1.0  T
   6     -6.2594973 -0.160460E-03  0.457E-02    1.41       1.0  T
[...]
   6     -6.2714443  0.450538E-07  0.623E-03    1.39       5.7  T
   7     -6.2714444 -0.682935E-07  0.230E-03    1.39      15.4  T
   8     -6.2714444 -0.372306E-07  0.120E-03    1.39      29.5  T
   9     -6.2714444 -0.885092E-09  0.307E-04    1.39     115.0  T
  10     -6.2714444 -0.193727E-08  0.101E-04    1.39     351.4  T
     SCC iter.                  ...        0 min,  0.001 sec
     gradient                   ...        0 min,  0.000 sec
 * total energy  :    -6.1621148 Eh     change        0.8645892E-04 Eh
   gradient norm :     0.0042787 Eh/α   predicted    -0.1676277E-04 (-119.39%)
   displ. norm   :     0.0439808 α      lambda       -0.1302976E-03
   maximum displ.:     0.0331770 α      in ANC's #4, #8, #7, ...

........................................................................
.............................. CYCLE   70 ..............................
........................................................................
   1     -6.2714589 -0.627146E+01  0.208E-01    1.39       0.0  T
   2     -6.2714491  0.977803E-05  0.134E-01    1.39       1.0  T
   3     -6.2694847  0.196445E-02  0.313E-01    1.39       1.0  T
   4     -6.2713843 -0.189957E-02  0.478E-02    1.39       1.0  T
   5     -6.2714592 -0.749016E-04  0.109E-02    1.39       3.2  T
   6     -6.2714604 -0.118745E-05  0.381E-03    1.39       9.3  T
   7     -6.2714604 -0.720642E-07  0.181E-03    1.39      19.5  T
   8     -6.2714605 -0.383975E-07  0.692E-04    1.39      51.1  T
   9     -6.2714605 -0.100263E-08  0.216E-04    1.39     163.9  T
     SCC iter.                  ...        0 min,  0.001 sec
     gradient                   ...        0 min,  0.000 sec
 * total energy  :    -6.1621999 Eh     change       -0.8510355E-04 Eh
   gradient norm :     0.0016301 Eh/α   predicted    -0.6527597E-04 ( -23.30%)
   displ. norm   :     0.0648127 α      lambda       -0.3522954E-04
   maximum displ.:     0.0383357 α      in ANC's #1, #3, #4, ...

........................................................................
.............................. CYCLE   71 ..............................
........................................................................
   1     -6.2708821 -0.627088E+01  0.239E-01    1.39       0.0  T
   2     -6.2708728  0.929545E-05  0.156E-01    1.39       1.0  T
   3     -6.2688794  0.199336E-02  0.324E-01    1.38       1.0  T
   4     -6.2707204 -0.184100E-02  0.716E-02    1.39       1.0  T
   5     -6.2708817 -0.161251E-03  0.171E-02    1.39       2.1  T
   6     -6.2708841 -0.245204E-05  0.443E-03    1.39       8.0  T
   7     -6.2708842 -0.843676E-07  0.128E-03    1.39      27.6  T
   8     -6.2708842 -0.302032E-08  0.837E-04    1.39      42.2  T
   9     -6.2708842 -0.500432E-08  0.320E-04    1.39     110.5  T
     SCC iter.                  ...        0 min,  0.001 sec
     gradient                   ...        0 min,  0.000 sec
 * total energy  :    -6.1622021 Eh     change       -0.2182926E-05 Eh
   gradient norm :     0.0014427 Eh/α   predicted    -0.1764814E-04 ( 708.46%)
   displ. norm   :     0.0402094 α      lambda       -0.2113112E-04
   maximum displ.:     0.0261798 α      in ANC's #3, #9, #2, ...

........................................................................
.............................. CYCLE   72 ..............................
........................................................................
   1     -6.2711812 -0.627118E+01  0.208E-01    1.39       0.0  T
   2     -6.2711806  0.545301E-06  0.136E-01    1.39       1.0  T
   3     -6.2708912  0.289414E-03  0.128E-01    1.40       1.0  T
   4     -6.2711453 -0.254079E-03  0.360E-02    1.40       1.0  T
   5     -6.2711770 -0.316845E-04  0.164E-02    1.39       2.2  T
   6     -6.2711824 -0.537678E-05  0.158E-03    1.39      22.4  T
   7     -6.2711824  0.123706E-07  0.135E-03    1.39      26.1  T
   8     -6.2711824 -0.214004E-07  0.586E-04    1.39      60.3  T
   9     -6.2711824 -0.300809E-08  0.154E-04    1.39     230.0  T
     SCC iter.                  ...        0 min,  0.001 sec
     gradient                   ...        0 min,  0.000 sec
 * total energy  :    -6.1622169 Eh     change       -0.1473515E-04 Eh
   gradient norm :     0.0004357 Eh/α   predicted    -0.1057420E-04 ( -28.24%)
   displ. norm   :     0.0203860 α      lambda       -0.3736895E-05
   maximum displ.:     0.0123067 α      in ANC's #1, #4, #3, ...

........................................................................
.............................. CYCLE   73 ..............................
........................................................................
   1     -6.2712476 -0.627125E+01  0.868E-02    1.39       0.0  T
   2     -6.2712472  0.441827E-06  0.558E-02    1.39       1.0  T
   3     -6.2710998  0.147410E-03  0.835E-02    1.39       1.0  T
   4     -6.2712449 -0.145167E-03  0.110E-02    1.39       3.2  T
   5     -6.2712460 -0.106089E-05  0.894E-03    1.39       4.0  T
   6     -6.2712478 -0.186445E-05  0.978E-04    1.39      36.1  T
   7     -6.2712479 -0.349554E-08  0.630E-04    1.39      56.1  T
   8     -6.2712479 -0.353109E-08  0.260E-04    1.39     135.8  T
     SCC iter.                  ...        0 min,  0.001 sec
     gradient                   ...        0 min,  0.001 sec
 * total energy  :    -6.1622195 Eh     change       -0.2663697E-05 Eh
   gradient norm :     0.0004148 Eh/α   predicted    -0.1867299E-05 ( -29.90%)
   displ. norm   :     0.0247307 α      lambda       -0.1989358E-05
   maximum displ.:     0.0194487 α      in ANC's #1, #9, #5, ...

   *** GEOMETRY OPTIMIZATION CONVERGED AFTER 73 ITERATIONS ***

------------------------------------------------------------------------
 total energy gain   :        -0.5862797 Eh     -367.8961 kcal/mol
 total RMSD          :         2.7441571 a0        1.4521 Å
 total power (kW/mol):       -21.0859894 (step)-8923.4997 (real)
------------------------------------------------------------------------

 ANCopt (total)                0 d,  0 h,  0 min,  0.173 sec
 optimizer setup                ...        0 min,  0.000 sec (  0.015%)
 model hessian                  ...        0 min,  0.000 sec (  0.208%)
 ANC generation                 ...        0 min,  0.000 sec (  0.106%)
 coordinate transformation      ...        0 min,  0.000 sec (  0.110%)
 single point calculation       ...        0 min,  0.166 sec ( 96.392%)
 optimization log               ...        0 min,  0.002 sec (  0.973%)
 hessian update                 ...        0 min,  0.002 sec (  0.879%)
 rational function              ...        0 min,  0.001 sec (  0.617%)

================
 final structure:
================
8
 xtb: 6.5.1 (conda-forge)
Be          -0.51183180725290        0.54738129743237       -0.36005356028198
B            0.52316639920458        0.45110617377250        0.93146600364162
B            1.44260788758927        0.35372998614980        2.10702334119696
B            2.42337410439848        0.23793560888422        3.33611527655875
H            2.64512054293577       -0.78032318414514        3.90993813297210
H            3.02884930045816        1.15571177881927        3.79009019912131
H           -0.19788249328581        0.57700667493155        4.07694452384491
H           -0.72940393404596        0.64776166415369        4.65947608294356

 Bond Distances (Angstroems)
 ---------------------------
Be1-B2=1.6579        B2-Be1=1.6579        B2-B3=1.4956         B3-B2=1.4956         B3-B4=1.5767         B4-B3=1.5767         
B4-H5=1.1897         B4-H6=1.1895         H5-B4=1.1897         H6-B4=1.1895         H7-H8=0.7917         H8-H7=0.7917         
 H  H  Rav=0.7917 sigma=0.0000  Rmin=0.7917  Rmax=0.7917     1
 B  H  Rav=1.1896 sigma=0.0001  Rmin=1.1895  Rmax=1.1897     2
 B  Be Rav=1.6579 sigma=0.0000  Rmin=1.6579  Rmax=1.6579     1
 B  B  Rav=1.5361 sigma=0.0406  Rmin=1.4956  Rmax=1.5767     2

 selected bond angles (degree)
 --------------------
B3-B2-Be1=179.21               B4-B3-B2=179.27                H5-B4-B3=123.70                H6-B4-B3=123.88                
H6-B4-H5=112.42                

 selected dihedral angles (degree)
 ---------------------------------
B4-B3-B2-Be1=108.50           H5-B4-B3-B2=299.90            H6-B4-B3-B2=119.55            

 CMA Distance (Angstroems)
 ---------------------------
R(CMA):  3.3364
           -------------------------------------------------
          |                Final Singlepoint                |
           -------------------------------------------------

          ...................................................
          :                      SETUP                      :
          :.................................................:
          :  # basis functions                  20          :
          :  # atomic orbitals                  20          :
          :  # shells                           12          :
          :  # electrons                        15          :
          :  max. iterations                   250          :
          :  Hamiltonian                  GFN2-xTB          :
          :  restarted?                      false          :
          :  GBSA solvation                  false          :
          :  PC potential                    false          :
          :  electronic temp.          300.0000000     K    :
          :  accuracy                    1.0000000          :
          :  -> integral cutoff          0.2500000E+02      :
          :  -> integral neglect         0.1000000E-07      :
          :  -> SCF convergence          0.1000000E-05 Eh   :
          :  -> wf. convergence          0.1000000E-03 e    :
          :  Broyden damping             0.4000000          :
          ...................................................

 iter      E             dE          RMSdq      gap      omega  full diag
   1     -6.2712479 -0.627125E+01  0.800E-05    1.39       0.0  T
   2     -6.2712479  0.141814E-08  0.263E-04    1.39     134.5  T
   3     -6.2712479 -0.138035E-08  0.647E-05    1.39     546.6  T

   *** convergence criteria satisfied after 3 iterations ***

         #    Occupation            Energy/Eh            Energy/eV
      -------------------------------------------------------------
         1        2.0000           -0.4330989             -11.7852
         2        2.0000           -0.4096199             -11.1463
         3        2.0000           -0.3832529             -10.4288
         4        2.0000           -0.3463687              -9.4252
         5        2.0000           -0.3321990              -9.0396
         6        2.0000           -0.2902316              -7.8976
         7        1.9986           -0.2604541              -7.0873
         8        1.0014           -0.2479673              -6.7475 (HOMO)
         9                         -0.1967920              -5.3550 (LUMO)
        10                         -0.1877153              -5.1080
        11                         -0.1485102              -4.0412
        12                         -0.1056886              -2.8759
        13                         -0.0036076              -0.0982
       ...                                ...                  ...
        20                          1.0642861              28.9607
      -------------------------------------------------------------
                  HL-Gap            0.0511753 Eh            1.3926 eV
             Fermi-level           -0.2382952 Eh           -6.4843 eV

 SCC (total)                   0 d,  0 h,  0 min,  0.001 sec
 SCC setup                      ...        0 min,  0.000 sec (  2.329%)
 Dispersion                     ...        0 min,  0.000 sec ( 10.134%)
 classical contributions        ...        0 min,  0.000 sec (  3.428%)
 integral evaluation            ...        0 min,  0.000 sec (  6.964%)
 iterations                     ...        0 min,  0.000 sec ( 34.002%)
 molecular gradient             ...        0 min,  0.000 sec ( 39.802%)
 printout                       ...        0 min,  0.000 sec (  2.717%)

         :::::::::::::::::::::::::::::::::::::::::::::::::::::
         ::                     SUMMARY                     ::
         :::::::::::::::::::::::::::::::::::::::::::::::::::::
         :: total energy              -6.162219514689 Eh    ::
         :: gradient norm              0.000414264063 Eh/a0 ::
         :: HOMO-LUMO gap              1.392550683380 eV    ::
         ::.................................................::
         :: SCC energy                -6.271247854109 Eh    ::
         :: -> isotropic ES            0.020223761942 Eh    ::
         :: -> anisotropic ES          0.014742419275 Eh    ::
         :: -> anisotropic XC         -0.014802121331 Eh    ::
         :: -> dispersion             -0.003745358626 Eh    ::
         :: repulsion energy           0.109024874820 Eh    ::
         :: add. restraining           0.000000000000 Eh    ::
         :: total charge              -0.000000000000 e     ::
         :::::::::::::::::::::::::::::::::::::::::::::::::::::

           -------------------------------------------------
          |                Property Printout                |
           -------------------------------------------------

    * Orbital Energies and Occupations

         #    Occupation            Energy/Eh            Energy/eV
      -------------------------------------------------------------
         1        2.0000           -0.4330989             -11.7852
         2        2.0000           -0.4096199             -11.1463
         3        2.0000           -0.3832529             -10.4288
         4        2.0000           -0.3463687              -9.4252
         5        2.0000           -0.3321990              -9.0396
         6        2.0000           -0.2902316              -7.8976
         7        1.9986           -0.2604541              -7.0873
         8        1.0014           -0.2479673              -6.7475 (HOMO)
         9                         -0.1967920              -5.3550 (LUMO)
        10                         -0.1877153              -5.1080
        11                         -0.1485102              -4.0412
        12                         -0.1056886              -2.8759
        13                         -0.0036076              -0.0982
        14                          0.0245253               0.6674
        15                          0.1627920               4.4298
        16                          0.4072295              11.0813
        17                          0.4499455              12.2436
        18                          0.5362519              14.5922
        19                          0.8243017              22.4304
        20                          1.0642861              28.9607
      -------------------------------------------------------------
                  HL-Gap            0.0511753 Eh            1.3926 eV
             Fermi-level           -0.2382952 Eh           -6.4843 eV

     #   Z          covCN         q      C6AA      α(0)
     1   4 Be       0.912     0.328    68.903    24.896
     2   5 B        1.890    -0.131    49.544    14.820
     3   5 B        1.953     0.018    43.487    13.870
     4   5 B        2.837     0.118    19.484     7.372
     5   1 H        0.932    -0.156     8.018     4.427
     6   1 H        0.932    -0.156     8.012     4.426
     7   1 H        0.763     0.018     2.856     2.664
     8   1 H        0.763    -0.038     3.924     3.122

 Mol. C6AA /au·bohr⁶  :       1203.714726
 Mol. C8AA /au·bohr⁸  :      38464.951983
 Mol. α(0) /au        :         75.595846


Wiberg/Mayer (AO) data.
largest (>0.10) Wiberg bond orders for each atom

 ---------------------------------------------------------------------------
     #   Z sym  total        # sym  WBO       # sym  WBO       # sym  WBO
 ---------------------------------------------------------------------------
     1   4 Be   1.752 --     2 B    1.363     3 B    0.315
     2   5 B    3.182 --     3 B    1.624     1 Be   1.363     4 B    0.178
     3   5 B    3.207 --     2 B    1.624     4 B    1.202     1 Be   0.315
     4   5 B    3.336 --     3 B    1.202     6 H    0.939     5 H    0.938
                             2 B    0.178
     5   1 H    0.962 --     4 B    0.938
     6   1 H    0.962 --     4 B    0.939
     7   1 H    1.000 --     8 H    0.974
     8   1 H    0.999 --     7 H    0.974
 ---------------------------------------------------------------------------

Topologies differ in total number of bonds
Writing topology from bond orders to xtbtopo.mol

molecular dipole:
                 x           y           z       tot (Debye)
 q only:       -1.490       0.155      -2.111
   full:       -2.195       0.216      -2.956       9.374
molecular quadrupole (traceless):
                xx          xy          yy          xz          yz          zz
 q only:        0.962      -1.361       9.189     -12.296      -1.567     -10.151
  q+dip:        2.041      -2.906       4.112      -4.565      -3.627      -6.153
   full:        1.628      -2.610       6.939      -8.578      -3.185      -8.566

           -------------------------------------------------
          |                Geometry Summary                 |
           -------------------------------------------------

      molecular mass/u    :       45.4770302
   center of mass at/Å    :        1.0471850       0.3918330       1.8083444
  moments of inertia/u·Å² :        0.1838626E+02   0.1431618E+03   0.1576371E+03
rotational constants/cm⁻¹ :        0.9168605E+00   0.1177523E+00   0.1069395E+00

 * 6 selected distances

     #   Z          #   Z                                           value/Å
     1   4 Be       2   5 B                                       1.6578641 (max)
     2   5 B        3   5 B                                       1.4955903
     3   5 B        4   5 B                                       1.5766985
     4   5 B        5   1 H                                       1.1896619
     4   5 B        6   1 H                                       1.1895406
     7   1 H        8   1 H                                       0.7917477 (min)

 * 4 distinct bonds (by element types)

   Z      Z             #   av. dist./Å        max./Å        min./Å
   1 H    1 H           1     0.7917477     0.7917477     0.7917477
   1 H    5 B           2     1.1896012     1.1896619     1.1895406
   4 Be   5 B           1     1.6578641     1.6578641     1.6578641
   5 B    5 B           2     1.5361444     1.5766985     1.4955903


optimized geometry written to: xtbopt.xyz


           -------------------------------------------------
          | TOTAL ENERGY               -6.162219514689 Eh   |
          | GRADIENT NORM               0.000414264063 Eh/α |
          | HOMO-LUMO GAP               1.392550683380 eV   |
           -------------------------------------------------
########################################################################
[WARNING] Runtime exception occurred
-3- restart_readRestart: Dimension missmatch in restart file.
-2- restart_readRestart: Multiplicity missmatch in restart file.
-1- restart_readRestart: Number of electron missmatch in restart file.
########################################################################

------------------------------------------------------------------------
 * finished run on 2025/06/07 at 03:27:46.364     
------------------------------------------------------------------------
 total:
 * wall-time:     0 d,  0 h,  0 min,  0.192 sec
 *  cpu-time:     0 d,  0 h,  0 min,  2.674 sec
 * ratio c/w:    13.922 speedup
 SCF:
 * wall-time:     0 d,  0 h,  0 min,  0.015 sec
 *  cpu-time:     0 d,  0 h,  0 min,  0.212 sec
Note: The following floating-point exceptions are signalling: IEEE_UNDERFLOW_FLAG
normal termination of xtb
 * ratio c/w:    13.941 speedup
 ANC optimizer:
 * wall-time:     0 d,  0 h,  0 min,  0.174 sec
 *  cpu-time:     0 d,  0 h,  0 min,  2.431 sec
 * ratio c/w:    13.967 speedup

