      -----------------------------------------------------------      
     |                   =====================                   |     
     |                           x T B                           |     
     |                   =====================                   |     
     |                         S. Grimme                         |     
     |          Mulliken Center for Theoretical Chemistry        |     
     |                    University of Bonn                     |     
      -----------------------------------------------------------      

   * xtb version 6.5.1 (conda-forge) compiled by 'runner@Mac-1657629245115.local' on 2022-07-12

   xtb is free software: you can redistribute it and/or modify it under
   the terms of the GNU Lesser General Public License as published by
   the Free Software Foundation, either version 3 of the License, or
   (at your option) any later version.
   
   xtb is distributed in the hope that it will be useful,
   but WITHOUT ANY WARRANTY; without even the implied warranty of
   MERCHANTABILITY or FITNESS FOR A PARTICULAR PURPOSE.  See the
   GNU Lesser General Public License for more details.
   
   Cite this work as:
   * C. Bannwarth, E. Caldeweyher, S. Ehlert, A. Hansen, P. Pracht,
     J. Seibert, S. Spicher, S. Grimme, WIREs Comput. Mol. Sci., 2020, 11,
     e01493. DOI: 10.1002/wcms.1493
   
   for GFN2-xTB:
   * C. Bannwarth, S. Ehlert and S. Grimme., J. Chem. Theory Comput., 2019,
     15, 1652-1671. DOI: 10.1021/acs.jctc.8b01176
   for GFN1-xTB:
   * S. Grimme, C. Bannwarth, P. Shushkov, J. Chem. Theory Comput., 2017,
     13, 1989-2009. DOI: 10.1021/acs.jctc.7b00118
   for GFN0-xTB:
   * P. Pracht, E. Caldeweyher, S. Ehlert, S. Grimme, ChemRxiv, 2019, preprint.
     DOI: 10.26434/chemrxiv.8326202.v1
   for GFN-FF:
   * S. Spicher and S. Grimme, Angew. Chem. Int. Ed., 2020, 59, 15665-15673.
     DOI: 10.1002/anie.202004239
   
   for ALPB and GBSA implicit solvation:
   * S. Ehlert, M. Stahn, S. Spicher, S. Grimme, J. Chem. Theory Comput.,
     2021, 17, 4250-4261. DOI: 10.1021/acs.jctc.1c00471
   
   for DFT-D4:
   * E. Caldeweyher, C. Bannwarth and S. Grimme, J. Chem. Phys., 2017,
     147, 034112. DOI: 10.1063/1.4993215
   * E. Caldeweyher, S. Ehlert, A. Hansen, H. Neugebauer, S. Spicher,
     C. Bannwarth and S. Grimme, J. Chem. Phys., 2019, 150, 154122.
     DOI: 10.1063/1.5090222
   * E. Caldeweyher, J.-M. Mewes, S. Ehlert and S. Grimme, Phys. Chem. Chem. Phys.
     2020, 22, 8499-8512. DOI: 10.1039/D0CP00502A
   
   for sTDA-xTB:
   * S. Grimme and C. Bannwarth, J. Chem. Phys., 2016, 145, 054103.
     DOI: 10.1063/1.4959605
   
   in the mass-spec context:
   * V. Asgeirsson, C. Bauer and S. Grimme, Chem. Sci., 2017, 8, 4879.
     DOI: 10.1039/c7sc00601b
   * J. Koopman and S. Grimme, ACS Omega 2019, 4, 12, 15120-15133.
     DOI: 10.1021/acsomega.9b02011
   
   for metadynamics refer to:
   * S. Grimme, J. Chem. Theory Comput., 2019, 155, 2847-2862
     DOI: 10.1021/acs.jctc.9b00143
   
   for SPH calculations refer to:
   * S. Spicher and S. Grimme, J. Chem. Theory Comput., 2021, 17, 1701-1714
     DOI: 10.1021/acs.jctc.0c01306
   
   with help from (in alphabetical order)
   P. Atkinson, C. Bannwarth, F. Bohle, G. Brandenburg, E. Caldeweyher
   M. Checinski, S. Dohm, S. Ehlert, S. Ehrlich, I. Gerasimov, C. Hölzer
   A. Katbashev, J. Koopman, C. Lavigne, S. Lehtola, F. März, M. Müller,
   F. Musil, H. Neugebauer, J. Pisarek, C. Plett, P. Pracht, F. Pultar,
   J. Seibert, P. Shushkov, S. Spicher, M. Stahn, M. Steiner, T. Strunk,
   J. Stückrath, T. Rose, and J. Unsleber
   
 * started run on 2025/06/07 at 03:27:43.187     

           -------------------------------------------------
          |                Calculation Setup                |
           -------------------------------------------------

          program call               : xtb B3BeC2H4.xyz --gfn 2 --opt
          coordinate file            : B3BeC2H4.xyz
          omp threads                :                    16

   ID    Z sym.   atoms
    1    4 Be     1
    2    5 B      2-4
    3    6 C      5, 6
    4    1 H      7-10

molecular fragmentation (1/2 indicates fragments):
1222222222
# atoms in fragment 1/2:     1     9
 fragment masses (1/2) :        9.01       60.49
CMA distance (Bohr)    :   6.330
constraining FC (au)   :  0.0500

           -------------------------------------------------
          |                 G F N 2 - x T B                 |
           -------------------------------------------------

        Reference                      10.1021/acs.jctc.8b01176
      * Hamiltonian:
        H0-scaling (s, p, d)           1.850000    2.230000    2.230000
        zeta-weighting                 0.500000
      * Dispersion:
        s8                             2.700000
        a1                             0.520000
        a2                             5.000000
        s9                             5.000000
      * Repulsion:
        kExp                           1.500000    1.000000
        rExp                           1.000000
      * Coulomb:
        alpha                          2.000000
        third order                    shell-resolved
        anisotropic                    true
        a3                             3.000000
        a5                             4.000000
        cn-shift                       1.200000
        cn-exp                         4.000000
        max-rad                        5.000000


          ...................................................
          :                      SETUP                      :
          :.................................................:
          :  # basis functions                  28          :
          :  # atomic orbitals                  28          :
          :  # shells                           16          :
          :  # electrons                        23          :
          :  max. iterations                   250          :
          :  Hamiltonian                  GFN2-xTB          :
          :  restarted?                      false          :
          :  GBSA solvation                  false          :
          :  PC potential                    false          :
          :  electronic temp.          300.0000000     K    :
          :  accuracy                    1.0000000          :
          :  -> integral cutoff          0.2500000E+02      :
          :  -> integral neglect         0.1000000E-07      :
          :  -> SCF convergence          0.1000000E-05 Eh   :
          :  -> wf. convergence          0.1000000E-03 e    :
          :  Broyden damping             0.4000000          :
          ...................................................

 iter      E             dE          RMSdq      gap      omega  full diag
   1     12.0563618  0.120564E+02  0.230E+01    0.19       0.0  T
   2      2.9671023 -0.908926E+01  0.263E+01    0.28       1.0  T
   3      1.8058595 -0.116124E+01  0.205E+01    1.30       1.0  T
   4     -2.4232929 -0.422915E+01  0.183E+01    0.17       1.0  T
   5     -5.7217466 -0.329845E+01  0.143E+01    1.03       1.0  T
   6     -5.5612923  0.160454E+00  0.127E+01    0.56       1.0  T
   7     -6.8341114 -0.127282E+01  0.127E+01    0.88       1.0  T
   8     -8.4940432 -0.165993E+01  0.979E+00    0.69       1.0  T
   9     -8.2794653  0.214578E+00  0.954E+00    0.73       1.0  T
  10     -8.1916534  0.878119E-01  0.994E+00    0.74       1.0  T
  11      7.9936656  0.161853E+02  0.184E+01    0.38       1.0  T
  12     -7.9309438 -0.159246E+02  0.725E+00    0.33       1.0  T
  13     -9.5220245 -0.159108E+01  0.479E+00    0.23       1.0  T
  14     -8.7466782  0.775346E+00  0.412E+00    0.18       1.0  T
  15     -9.1566406 -0.409962E+00  0.458E+00    0.07       1.0  T
  16     -9.0923872  0.642534E-01  0.364E+00    0.12       1.0  T
  17     -9.3882147 -0.295827E+00  0.369E+00    0.05       1.0  T
  18     -9.3926509 -0.443618E-02  0.345E+00    0.07       1.0  T
  19     -9.4319251 -0.392742E-01  0.567E+00    0.30       1.0  T
  20     -9.6405054 -0.208580E+00  0.397E+00    0.21       1.0  T
  21     -9.6529356 -0.124302E-01  0.376E+00    0.20       1.0  T
  22     -9.6572389 -0.430333E-02  0.344E+00    0.19       1.0  T
  23     -9.4289671  0.228272E+00  0.318E+00    0.13       1.0  T
  24     -9.4477376 -0.187705E-01  0.334E+00    0.13       1.0  T
  25     -9.4300524  0.176852E-01  0.351E+00    0.13       1.0  T
  26     -9.6011884 -0.171136E+00  0.295E+00    0.12       1.0  T
  27     -9.6026903 -0.150180E-02  0.279E+00    0.11       1.0  T
  28     -9.6501143 -0.474241E-01  0.227E+00    0.13       1.0  T
  29     -9.6076104  0.425039E-01  0.170E+00    0.11       1.0  T
  30     -9.6636354 -0.560250E-01  0.998E-01    0.13       1.0  T
  31     -9.6661854 -0.254997E-02  0.102E+00    0.12       1.0  T
  32     -9.6548146  0.113708E-01  0.104E+00    0.11       1.0  T
  33     -9.6366656  0.181489E-01  0.130E+00    0.13       1.0  T
  34     -9.6691373 -0.324717E-01  0.710E-01    0.15       1.0  T
  35     -9.6670240  0.211329E-02  0.759E-01    0.14       1.0  T
  36     -9.6587666  0.825741E-02  0.755E-01    0.14       1.0  T
  37     -9.6589944 -0.227826E-03  0.682E-01    0.13       1.0  T
  38     -9.6592867 -0.292287E-03  0.575E-01    0.14       1.0  T
  39     -9.6667855 -0.749880E-02  0.466E-01    0.14       1.0  T
  40     -9.6687175 -0.193197E-02  0.381E-01    0.14       1.0  T
  41     -9.6690284 -0.310901E-03  0.240E-01    0.14       1.0  T
  42     -9.6694193 -0.390933E-03  0.178E-01    0.15       1.0  T
  43     -9.6694700 -0.507016E-04  0.137E-01    0.15       1.0  T
  44     -9.6694055  0.645556E-04  0.143E-01    0.15       1.0  T
  45     -9.6693631  0.423065E-04  0.154E-01    0.15       1.0  T
  46     -9.6694098 -0.467016E-04  0.145E-01    0.15       1.0  T
  47     -9.6694679 -0.580132E-04  0.128E-01    0.15       1.0  T
  48     -9.6695183 -0.503997E-04  0.111E-01    0.15       1.0  T
  49     -9.6695358 -0.175420E-04  0.982E-02    0.15       1.0  T
  50     -9.6695541 -0.182783E-04  0.844E-02    0.15       1.0  T
  51     -9.6695599 -0.581054E-05  0.758E-02    0.15       1.0  T
  52     -9.6695744 -0.145016E-04  0.600E-02    0.15       1.0  T
  53     -9.6695862 -0.118047E-04  0.454E-02    0.15       1.0  T
  54     -9.6695969 -0.107131E-04  0.309E-02    0.15       1.0  T
  55     -9.6696025 -0.555796E-05  0.207E-02    0.15       1.5  T
  56     -9.6696056 -0.308648E-05  0.124E-02    0.15       2.5  T
  57     -9.6696068 -0.121108E-05  0.580E-03    0.15       5.4  T
  58     -9.6696070 -0.233486E-06  0.206E-03    0.15      15.4  T
  59     -9.6696070 -0.136634E-07  0.106E-03    0.15      29.7  T
  60     -9.6696070  0.776111E-08  0.760E-04    0.15      41.6  T
  61     -9.6696070 -0.104838E-07  0.443E-04    0.15      71.3  T

   *** convergence criteria satisfied after 61 iterations ***

         #    Occupation            Energy/Eh            Energy/eV
      -------------------------------------------------------------
         1        2.0000           -0.5988863             -16.2965
       ...           ...                  ...                  ...
         6        2.0000           -0.3241574              -8.8208
         7        2.0000           -0.3022520              -8.2247
         8        2.0000           -0.2895003              -7.8777
         9        2.0000           -0.2823512              -7.6832
        10        2.0000           -0.2632037              -7.1621
        11        2.0000           -0.2542779              -6.9193
        12        0.9467           -0.2329142              -6.3379 (HOMO)
        13        0.0533           -0.2274468              -6.1891 (LUMO)
        14        0.0000           -0.2151449              -5.8544
        15                         -0.1985032              -5.4015
        16                         -0.1816287              -4.9424
        17                         -0.1736528              -4.7253
       ...                                ...                  ...
        28                          0.5189366              14.1210
      -------------------------------------------------------------
                  HL-Gap            0.0054674 Eh            0.1488 eV
             Fermi-level           -0.2368890 Eh           -6.4461 eV

 SCC (total)                   0 d,  0 h,  0 min,  0.017 sec
 SCC setup                      ...        0 min,  0.000 sec (  0.481%)
 Dispersion                     ...        0 min,  0.000 sec (  0.847%)
 classical contributions        ...        0 min,  0.000 sec (  0.638%)
 integral evaluation            ...        0 min,  0.000 sec (  0.900%)
 iterations                     ...        0 min,  0.015 sec ( 88.668%)
 molecular gradient             ...        0 min,  0.001 sec (  7.646%)
 printout                       ...        0 min,  0.000 sec (  0.724%)

         :::::::::::::::::::::::::::::::::::::::::::::::::::::
         ::                     SUMMARY                     ::
         :::::::::::::::::::::::::::::::::::::::::::::::::::::
         :: total energy              -9.609625570712 Eh    ::
         :: gradient norm              0.336507916696 Eh/a0 ::
         :: HOMO-LUMO gap              0.148774991647 eV    ::
         ::.................................................::
         :: SCC energy                -9.669607014329 Eh    ::
         :: -> isotropic ES           -0.019805384860 Eh    ::
         :: -> anisotropic ES          0.004865525261 Eh    ::
         :: -> anisotropic XC         -0.009630969214 Eh    ::
         :: -> dispersion             -0.009587511313 Eh    ::
         :: repulsion energy           0.059989955448 Eh    ::
         :: add. restraining           0.000000000000 Eh    ::
         :: total charge              -0.000000000000 e     ::
         :::::::::::::::::::::::::::::::::::::::::::::::::::::

      ----------------------------------------------------------- 
     |                   =====================                   |
     |                        A N C O P T                        |
     |                   =====================                   |
     |               Approximate Normal Coordinate               |
     |                Rational Function Optimizer                |
      ----------------------------------------------------------- 

          ...................................................
          :                      SETUP                      :
          :.................................................:
          :   optimization level            normal          :
          :   max. optcycles                   200          :
          :   ANC micro-cycles                  20          :
          :   degrees of freedom                24          :
          :.................................................:
          :   RF solver                   davidson          :
          :   write xtbopt.log                true          :
          :   linear?                        false          :
          :   energy convergence         0.5000000E-05 Eh   :
          :   grad. convergence          0.1000000E-02 Eh/α :
          :   maximium RF displ.         1.0000000          :
          :   Hlow (freq-cutoff)         0.1000000E-01      :
          :   Hmax (freq-cutoff)         5.0000000          :
          :   S6 in model hess.         20.0000000          :
          ...................................................

generating ANC from model Hessian ...
Using Lindh-Hessian (1995)
 Shifting diagonal of input Hessian by    1.3123960830049484E-002
 Lowest  eigenvalues of input Hessian
    0.010000    0.012792    0.012883    0.000000    0.000000    0.000000
    0.000000    0.000000    0.000000    0.014246    0.015145    0.017497
    0.020649    0.024549    0.027953    0.034000    0.039448    0.044189
 Highest eigenvalues
    0.212243    0.254293    0.289079    0.315638    0.390882    0.530200


........................................................................
.............................. CYCLE    1 ..............................
........................................................................
   1     -9.6696070 -0.966961E+01  0.365E-04    0.15       0.0  T
   2     -9.6696069  0.101715E-06  0.232E-03    0.15      13.6  T
   3     -9.6696070 -0.416739E-07  0.185E-03    0.15      17.1  T
   4     -9.6696069  0.804251E-07  0.260E-03    0.15      12.2  T
   5     -9.6696070 -0.127898E-06  0.901E-04    0.15      35.1  T
   6     -9.6696070 -0.109414E-07  0.408E-04    0.15      77.6  T
     SCC iter.                  ...        0 min,  0.002 sec
     gradient                   ...        0 min,  0.001 sec
 * total energy  :    -9.6096256 Eh     change        0.1224560E-08 Eh
   gradient norm :     0.3360034 Eh/α   predicted     0.0000000E+00 (-100.00%)
   displ. norm   :     0.7881953 α      lambda       -0.2506203E+00
   maximum displ.:     0.2890075 α      in ANC's #17, #20, #19, ...

........................................................................
.............................. CYCLE    2 ..............................
........................................................................
   1     -9.7926954 -0.979270E+01  0.351E+00    0.16       0.0  T
   2     -9.2935387  0.499157E+00  0.533E+00    0.15       1.0  T
   3     -9.3547705 -0.612318E-01  0.467E+00    0.40       1.0  T
   4     -9.4726896 -0.117919E+00  0.450E+00    0.23       1.0  T
   5     -9.6764831 -0.203793E+00  0.320E+00    0.35       1.0  T
   6     -9.6941837 -0.177006E-01  0.279E+00    0.40       1.0  T
   7     -9.8073382 -0.113154E+00  0.162E+00    0.09       1.0  T
   8     -9.8561587 -0.488205E-01  0.783E-01    0.25       1.0  T
   9     -9.8541857  0.197296E-02  0.771E-01    0.23       1.0  T
  10     -9.8451670  0.901869E-02  0.954E-01    0.23       1.0  T
  11     -9.8450374  0.129567E-03  0.862E-01    0.24       1.0  T
  12     -9.8560377 -0.110002E-01  0.462E-01    0.23       1.0  T
  13     -9.8605124 -0.447476E-02  0.202E-01    0.23       1.0  T
  14     -9.8605338 -0.213480E-04  0.172E-01    0.23       1.0  T
  15     -9.8606194 -0.856328E-04  0.140E-01    0.24       1.0  T
  16     -9.8606058  0.136286E-04  0.131E-01    0.24       1.0  T
  17     -9.8607205 -0.114676E-03  0.828E-02    0.24       1.0  T
  18     -9.8607846 -0.641717E-04  0.411E-02    0.24       1.0  T
  19     -9.8607965 -0.118565E-04  0.168E-02    0.24       1.9  T
  20     -9.8607985 -0.197992E-05  0.809E-03    0.24       3.9  T
  21     -9.8607994 -0.964454E-06  0.183E-03    0.24      17.3  T
  22     -9.8607995 -0.254510E-07  0.990E-04    0.24      31.9  T
  23     -9.8607995 -0.952125E-08  0.154E-04    0.24     204.9  T
     SCC iter.                  ...        0 min,  0.017 sec
     gradient                   ...        0 min,  0.001 sec
 * total energy  :    -9.8118007 Eh     change       -0.2021751E+00 Eh
   gradient norm :     0.2486700 Eh/α   predicted    -0.2031593E+00 (   0.49%)
   displ. norm   :     0.8732405 α      lambda       -0.2123915E+00
   maximum displ.:     0.4853765 α      in ANC's #17, #19, #24, ...

........................................................................
.............................. CYCLE    3 ..............................
........................................................................
   1    -10.0451758 -0.100452E+02  0.313E+00    0.09       0.0  T
   2     -8.9948135  0.105036E+01  0.673E+00    0.58       1.0  T
   3     -9.6610801 -0.666267E+00  0.462E+00    0.33       1.0  T
   4    -10.0596629 -0.398583E+00  0.227E+00    0.23       1.0  T
   5     -9.8537740  0.205889E+00  0.357E+00    0.25       1.0  T
   6     -9.8912683 -0.374943E-01  0.325E+00    0.33       1.0  T
   7     -9.7952508  0.960175E-01  0.362E+00    0.44       1.0  T
   8     -9.9761698 -0.180919E+00  0.241E+00    0.29       1.0  T
   9    -10.0559103 -0.797405E-01  0.134E+00    0.24       1.0  T
  10    -10.0931178 -0.372075E-01  0.796E-01    0.19       1.0  T
  11    -10.0800829  0.130349E-01  0.144E+00    0.13       1.0  T
  12    -10.0875790 -0.749609E-02  0.115E+00    0.13       1.0  T
  13    -10.0426087  0.449703E-01  0.252E+00    0.13       1.0  T
  14    -10.0442204 -0.161170E-02  0.251E+00    0.14       1.0  T
  15    -10.0917975 -0.475771E-01  0.119E+00    0.14       1.0  T
  16    -10.0959268 -0.412926E-02  0.798E-01    0.15       1.0  T
  17    -10.0988948 -0.296804E-02  0.276E-01    0.14       1.0  T
  18    -10.0986405  0.254345E-03  0.286E-01    0.14       1.0  T
  19    -10.0992444 -0.603938E-03  0.219E-02    0.14       1.4  T
  20    -10.0992282  0.161672E-04  0.423E-02    0.14       1.0  T
  21    -10.0992320 -0.378350E-05  0.441E-02    0.14       1.0  T
  22    -10.0992384 -0.640286E-05  0.320E-02    0.14       1.0  T
  23    -10.0992436 -0.521290E-05  0.150E-02    0.14       2.1  T
  24    -10.0992446 -0.968477E-06  0.904E-03    0.14       3.5  T
  25    -10.0992451 -0.520499E-06  0.166E-03    0.14      19.1  T
  26    -10.0992451 -0.150506E-07  0.350E-04    0.14      90.4  T
  27    -10.0992451 -0.785287E-09  0.195E-04    0.14     161.8  T
     SCC iter.                  ...        0 min,  0.006 sec
     gradient                   ...        0 min,  0.001 sec
 * total energy  :    -9.9712310 Eh     change       -0.1594303E+00 Eh
   gradient norm :     0.1483204 Eh/α   predicted    -0.1871752E+00 (  17.40%)
   displ. norm   :     0.8090232 α      lambda       -0.1129427E+00
   maximum displ.:     0.4717336 α      in ANC's #12, #19, #16, ...

........................................................................
.............................. CYCLE    4 ..............................
........................................................................
   1    -10.1928397 -0.101928E+02  0.449E+00    0.54       0.0  T
   2     -9.2682479  0.924592E+00  0.617E+00    0.11       1.0  T
   3     -9.5502991 -0.282051E+00  0.606E+00    0.64       1.0  T
   4     -9.9095666 -0.359267E+00  0.429E+00    0.66       1.0  T
   5     -9.9021524  0.741419E-02  0.456E+00    0.66       1.0  T
   6    -10.2283277 -0.326175E+00  0.177E+00    0.46       1.0  T
   7    -10.1945361  0.337916E-01  0.189E+00    0.42       1.0  T
   8    -10.2074273 -0.128912E-01  0.169E+00    0.44       1.0  T
   9    -10.2251982 -0.177709E-01  0.123E+00    0.42       1.0  T
  10    -10.2397226 -0.145244E-01  0.624E-01    0.42       1.0  T
  11    -10.2382911  0.143156E-02  0.569E-01    0.43       1.0  T
  12    -10.2404180 -0.212698E-02  0.441E-01    0.41       1.0  T
  13    -10.2392302  0.118783E-02  0.345E-01    0.42       1.0  T
  14    -10.2400398 -0.809578E-03  0.275E-01    0.42       1.0  T
  15    -10.2413344 -0.129457E-02  0.429E-02    0.42       1.0  T
  16    -10.2413356 -0.119616E-05  0.244E-02    0.42       1.3  T
  17    -10.2413412 -0.568170E-05  0.123E-02    0.42       2.6  T
  18    -10.2413424 -0.115253E-05  0.788E-03    0.42       4.0  T
  19    -10.2413424 -0.385814E-07  0.578E-03    0.42       5.5  T
  20    -10.2413425 -0.866160E-07  0.294E-03    0.42      10.8  T
  21    -10.2413425 -0.303299E-08  0.645E-04    0.42      49.0  T
  22    -10.2413425 -0.573155E-08  0.359E-04    0.42      88.0  T
     SCC iter.                  ...        0 min,  0.006 sec
     gradient                   ...        0 min,  0.001 sec
 * total energy  :   -10.0403407 Eh     change       -0.6910968E-01 Eh
   gradient norm :     0.1576058 Eh/α   predicted    -0.9343284E-01 (  35.20%)
   displ. norm   :     0.7309300 α      lambda       -0.8492329E-01
   maximum displ.:     0.4116488 α      in ANC's #8, #7, #10, ...

........................................................................
.............................. CYCLE    5 ..............................
........................................................................
   1    -10.2882738 -0.102883E+02  0.266E+00    0.97       0.0  T
   2    -10.1706377  0.117636E+00  0.326E+00    0.41       1.0  T
   3    -10.1678271  0.281060E-02  0.341E+00    0.75       1.0  T
   4    -10.2980457 -0.130219E+00  0.160E+00    0.75       1.0  T
   5    -10.2331712  0.648745E-01  0.152E+00    0.63       1.0  T
   6    -10.2717960 -0.386248E-01  0.117E+00    0.70       1.0  T
   7    -10.3111016 -0.393055E-01  0.480E-01    0.71       1.0  T
   8    -10.3127675 -0.166597E-02  0.431E-01    0.71       1.0  T
   9    -10.3144781 -0.171061E-02  0.326E-01    0.70       1.0  T
  10    -10.3152133 -0.735190E-03  0.114E-01    0.71       1.0  T
  11    -10.3153741 -0.160744E-03  0.355E-02    0.70       1.0  T
  12    -10.3153685  0.556845E-05  0.311E-02    0.70       1.0  T
  13    -10.3153763 -0.780637E-05  0.120E-02    0.70       2.6  T
  14    -10.3153783 -0.196257E-05  0.321E-03    0.70       9.8  T
  15    -10.3153783 -0.690035E-07  0.125E-03    0.70      25.3  T
  16    -10.3153784 -0.181996E-07  0.526E-04    0.70      60.2  T
  17    -10.3153784 -0.273514E-08  0.114E-04    0.70     276.8  T
     SCC iter.                  ...        0 min,  0.004 sec
     gradient                   ...        0 min,  0.001 sec
 * total energy  :   -10.0853589 Eh     change       -0.4501817E-01 Eh
   gradient norm :     0.1740296 Eh/α   predicted    -0.6514714E-01 (  44.71%)
   displ. norm   :     0.6829175 α      lambda       -0.7856911E-01
   maximum displ.:     0.3795760 α      in ANC's #12, #8, #18, ...

........................................................................
.............................. CYCLE    6 ..............................
........................................................................
   1    -10.2396658 -0.102397E+02  0.222E+00    0.64       0.0  T
   2     -9.5449768  0.694689E+00  0.688E+00    0.04       1.0  T
   3    -10.2228026 -0.677826E+00  0.236E+00    0.70       1.0  T
   4     -8.3881145  0.183469E+01  0.814E+00    0.07       1.0  T
   5     -9.8574997 -0.146939E+01  0.417E+00    0.26       1.0  T
   6     -9.9877115 -0.130212E+00  0.359E+00    0.33       1.0  T
   7    -10.1737730 -0.186061E+00  0.207E+00    0.57       1.0  T
   8    -10.2703561 -0.965832E-01  0.958E-01    0.70       1.0  T
   9    -10.2592255  0.111307E-01  0.837E-01    0.60       1.0  T
  10    -10.2674314 -0.820593E-02  0.790E-01    0.66       1.0  T
  11    -10.2714450 -0.401357E-02  0.646E-01    0.66       1.0  T
  12    -10.2752776 -0.383259E-02  0.491E-01    0.66       1.0  T
  13    -10.2770090 -0.173144E-02  0.488E-01    0.66       1.0  T
  14    -10.2765993  0.409700E-03  0.500E-01    0.67       1.0  T
  15    -10.2763267  0.272666E-03  0.520E-01    0.67       1.0  T
  16    -10.2765066 -0.179964E-03  0.531E-01    0.67       1.0  T
  17    -10.2765157 -0.905902E-05  0.527E-01    0.68       1.0  T
  18    -10.2773793 -0.863584E-03  0.457E-01    0.68       1.0  T
  19    -10.2782309 -0.851664E-03  0.371E-01    0.68       1.0  T
  20    -10.2788773 -0.646338E-03  0.282E-01    0.67       1.0  T
  21    -10.2792883 -0.411050E-03  0.193E-01    0.67       1.0  T
  22    -10.2795436 -0.255253E-03  0.807E-02    0.67       1.0  T
  23    -10.2795700 -0.264644E-04  0.408E-02    0.67       1.0  T
  24    -10.2795719 -0.187921E-05  0.193E-02    0.67       1.6  T
  25    -10.2795713  0.584081E-06  0.963E-03    0.67       3.3  T
  26    -10.2795721 -0.756296E-06  0.362E-03    0.67       8.7  T
  27    -10.2795722 -0.139204E-06  0.825E-04    0.67      38.3  T
  28    -10.2795722 -0.339700E-08  0.645E-04    0.67      49.0  T
     SCC iter.                  ...        0 min,  0.004 sec
     gradient                   ...        0 min,  0.000 sec
 * total energy  :   -10.1160708 Eh     change       -0.3071194E-01 Eh
   gradient norm :     0.1302066 Eh/α   predicted    -0.5760591E-01 (  87.57%)
   displ. norm   :     0.6989511 α      lambda       -0.6351859E-01
   maximum displ.:     0.4417199 α      in ANC's #8, #6, #19, ...

........................................................................
.............................. CYCLE    7 ..............................
........................................................................
   1    -10.3276982 -0.103277E+02  0.198E+00    1.36       0.0  T
   2    -10.3114207  0.162775E-01  0.155E+00    1.24       1.0  T
   3     -9.7856031  0.525818E+00  0.376E+00    0.75       1.0  T
   4    -10.2791181 -0.493515E+00  0.150E+00    1.45       1.0  T
   5    -10.3194150 -0.402969E-01  0.763E-01    1.29       1.0  T
   6    -10.3198729 -0.457931E-03  0.660E-01    1.34       1.0  T
   7    -10.3294214 -0.954845E-02  0.433E-01    1.29       1.0  T
   8    -10.3310282 -0.160684E-02  0.275E-01    1.29       1.0  T
   9    -10.3316084 -0.580223E-03  0.238E-01    1.28       1.0  T
  10    -10.3320907 -0.482217E-03  0.935E-02    1.27       1.0  T
  11    -10.3321423 -0.516717E-04  0.506E-02    1.28       1.0  T
  12    -10.3321980 -0.556639E-04  0.174E-02    1.28       1.8  T
  13    -10.3321968  0.121711E-05  0.113E-02    1.28       2.8  T
  14    -10.3321988 -0.197450E-05  0.460E-03    1.28       6.9  T
  15    -10.3321990 -0.280866E-06  0.135E-03    1.28      23.3  T
  16    -10.3321991 -0.253211E-07  0.662E-04    1.28      47.7  T
  17    -10.3321991 -0.290909E-08  0.149E-04    1.28     212.0  T
     SCC iter.                  ...        0 min,  0.003 sec
     gradient                   ...        0 min,  0.001 sec
 * total energy  :   -10.1492528 Eh     change       -0.3318196E-01 Eh
   gradient norm :     0.0946221 Eh/α   predicted    -0.4727474E-01 (  42.47%)
   displ. norm   :     0.6916092 α      lambda       -0.5295980E-01
   maximum displ.:     0.3944741 α      in ANC's #12, #18, #19, ...

........................................................................
.............................. CYCLE    8 ..............................
........................................................................
   1    -10.3200509 -0.103201E+02  0.292E+00    1.49       0.0  T
   2     -9.9107918  0.409259E+00  0.536E+00    0.78       1.0  T
   3    -10.2999795 -0.389188E+00  0.205E+00    1.75       1.0  T
   4    -10.2488505  0.511290E-01  0.251E+00    1.50       1.0  T
   5    -10.3681238 -0.119273E+00  0.113E+00    1.45       1.0  T
   6    -10.3466705  0.214533E-01  0.118E+00    1.53       1.0  T
   7    -10.3546056 -0.793515E-02  0.103E+00    1.56       1.0  T
   8    -10.3716339 -0.170283E-01  0.348E-01    1.56       1.0  T
   9    -10.3725294 -0.895544E-03  0.258E-01    1.51       1.0  T
  10    -10.3730939 -0.564484E-03  0.955E-02    1.53       1.0  T
  11    -10.3731322 -0.382976E-04  0.586E-02    1.53       1.0  T
  12    -10.3731832 -0.509526E-04  0.408E-02    1.53       1.0  T
  13    -10.3731862 -0.308320E-05  0.189E-02    1.53       1.7  T
  14    -10.3731944 -0.820620E-05  0.520E-03    1.53       6.1  T
  15    -10.3731945 -0.692872E-07  0.243E-03    1.53      13.0  T
  16    -10.3731946 -0.659384E-07  0.929E-04    1.53      34.0  T
  17    -10.3731946 -0.492440E-08  0.207E-04    1.53     152.8  T
     SCC iter.                  ...        0 min,  0.002 sec
     gradient                   ...        0 min,  0.000 sec
 * total energy  :   -10.1416975 Eh     change        0.7555275E-02 Eh
   gradient norm :     0.2328643 Eh/α   predicted    -0.3914583E-01 (-618.13%)
   displ. norm   :     0.4099340 α      lambda       -0.8166396E-01
   maximum displ.:     0.2967462 α      in ANC's #12, #23, #5, ...

........................................................................
.............................. CYCLE    9 ..............................
........................................................................
   1    -10.3738121 -0.103738E+02  0.153E+00    1.66       0.0  T
   2    -10.1561616  0.217651E+00  0.448E+00    1.18       1.0  T
   3    -10.3756041 -0.219442E+00  0.181E+00    1.52       1.0  T
   4    -10.3722791  0.332498E-02  0.149E+00    1.64       1.0  T
   5    -10.2416312  0.130648E+00  0.272E+00    1.28       1.0  T
   6    -10.3701499 -0.128519E+00  0.853E-01    1.65       1.0  T
   7    -10.3814372 -0.112873E-01  0.917E-01    1.65       1.0  T
   8    -10.3895970 -0.815974E-02  0.382E-01    1.66       1.0  T
   9    -10.3899003 -0.303308E-03  0.273E-01    1.65       1.0  T
  10    -10.3896875  0.212778E-03  0.267E-01    1.64       1.0  T
  11    -10.3904000 -0.712566E-03  0.109E-01    1.65       1.0  T
  12    -10.3904972 -0.971818E-04  0.647E-02    1.65       1.0  T
  13    -10.3905135 -0.163103E-04  0.234E-02    1.64       1.3  T
  14    -10.3905160 -0.249028E-05  0.139E-02    1.64       2.3  T
  15    -10.3905170 -0.965684E-06  0.750E-03    1.64       4.2  T
  16    -10.3905177 -0.747322E-06  0.184E-03    1.64      17.1  T
  17    -10.3905178 -0.334981E-07  0.165E-03    1.64      19.1  T
  18    -10.3905178  0.259116E-08  0.157E-03    1.64      20.1  T
  19    -10.3905178 -0.111514E-07  0.492E-05    1.64     642.8  T
  20    -10.3905178 -0.110312E-11  0.498E-05    1.64     634.9  T
     SCC iter.                  ...        0 min,  0.003 sec
     gradient                   ...        0 min,  0.000 sec
 * total energy  :   -10.1776226 Eh     change       -0.3592512E-01 Eh
   gradient norm :     0.0630677 Eh/α   predicted    -0.4769363E-01 (  32.76%)
   displ. norm   :     0.6428506 α      lambda       -0.2336934E-01
   maximum displ.:     0.4882131 α      in ANC's #5, #4, #2, ...

........................................................................
.............................. CYCLE   10 ..............................
........................................................................
   1    -10.3976701 -0.103977E+02  0.167E+00    1.34       0.0  T
   2    -10.3647228  0.329473E-01  0.180E+00    1.15       1.0  T
   3    -10.3368496  0.278731E-01  0.160E+00    1.34       1.0  T
   4    -10.2728012  0.640485E-01  0.226E+00    1.34       1.0  T
   5    -10.3856958 -0.112895E+00  0.937E-01    1.25       1.0  T
   6    -10.3940674 -0.837159E-02  0.551E-01    1.26       1.0  T
   7    -10.4003140 -0.624669E-02  0.282E-01    1.26       1.0  T
   8    -10.4013555 -0.104144E-02  0.228E-01    1.27       1.0  T
   9    -10.4013148  0.406768E-04  0.185E-01    1.27       1.0  T
  10    -10.4014606 -0.145811E-03  0.887E-02    1.27       1.0  T
  11    -10.4016905 -0.229924E-03  0.215E-02    1.27       1.5  T
  12    -10.4016906 -0.136707E-07  0.128E-02    1.28       2.5  T
  13    -10.4016916 -0.102779E-05  0.591E-03    1.28       5.4  T
  14    -10.4016921 -0.550550E-06  0.242E-03    1.28      13.0  T
  15    -10.4016921  0.127893E-08  0.736E-04    1.28      42.9  T
  16    -10.4016921 -0.586494E-08  0.167E-04    1.28     189.6  T
     SCC iter.                  ...        0 min,  0.003 sec
     gradient                   ...        0 min,  0.000 sec
 * total energy  :   -10.1489486 Eh     change        0.2867399E-01 Eh
   gradient norm :     0.3552101 Eh/α   predicted    -0.1651344E-01 (-157.59%)
   displ. norm   :     0.3107358 α      lambda       -0.8576312E-01
   maximum displ.:     0.1750027 α      in ANC's #7, #6, #19, ...

........................................................................
.............................. CYCLE   11 ..............................
........................................................................
   1    -10.4151554 -0.104152E+02  0.107E+00    1.68       0.0  T
   2    -10.4016640  0.134914E-01  0.950E-01    1.64       1.0  T
   3    -10.3391320  0.625321E-01  0.253E+00    1.60       1.0  T
   4    -10.4058493 -0.667173E-01  0.753E-01    1.71       1.0  T
   5    -10.4084604 -0.261113E-02  0.734E-01    1.64       1.0  T
   6    -10.4145516 -0.609120E-02  0.271E-01    1.65       1.0  T
   7    -10.4162760 -0.172441E-02  0.181E-01    1.66       1.0  T
   8    -10.4162715  0.450943E-05  0.181E-01    1.66       1.0  T
   9    -10.4161917  0.798553E-04  0.136E-01    1.66       1.0  T
  10    -10.4163614 -0.169723E-03  0.619E-02    1.66       1.0  T
  11    -10.4163719 -0.105098E-04  0.543E-02    1.66       1.0  T
  12    -10.4163944 -0.224915E-04  0.220E-02    1.66       1.4  T
  13    -10.4164001 -0.573475E-05  0.449E-03    1.66       7.0  T
  14    -10.4164001 -0.148936E-07  0.138E-03    1.66      23.0  T
  15    -10.4164001 -0.663785E-08  0.668E-04    1.66      47.3  T
  16    -10.4164001 -0.600432E-08  0.326E-04    1.66      97.1  T
     SCC iter.                  ...        0 min,  0.003 sec
     gradient                   ...        0 min,  0.001 sec
 * total energy  :   -10.1904314 Eh     change       -0.4148282E-01 Eh
   gradient norm :     0.0474949 Eh/α   predicted    -0.4702205E-01 (  13.35%)
   displ. norm   :     0.5769757 α      lambda       -0.1902871E-01
   maximum displ.:     0.2499747 α      in ANC's #1, #9, #10, ...

........................................................................
.............................. CYCLE   12 ..............................
........................................................................
   1    -10.4097359 -0.104097E+02  0.159E+00    1.45       0.0  T
   2    -10.2316889  0.178047E+00  0.361E+00    1.10       1.0  T
   3    -10.4157047 -0.184016E+00  0.110E+00    1.57       1.0  T
   4    -10.2568549  0.158850E+00  0.218E+00    1.19       1.0  T
   5    -10.3837085 -0.126854E+00  0.113E+00    1.49       1.0  T
   6    -10.4154831 -0.317746E-01  0.591E-01    1.54       1.0  T
   7    -10.4166590 -0.117590E-02  0.326E-01    1.54       1.0  T
   8    -10.4191251 -0.246615E-02  0.185E-01    1.54       1.0  T
   9    -10.4199223 -0.797147E-03  0.880E-02    1.53       1.0  T
  10    -10.4199299 -0.762610E-05  0.825E-02    1.53       1.0  T
  11    -10.4199712 -0.413134E-04  0.221E-02    1.53       1.4  T
  12    -10.4199742 -0.298584E-05  0.122E-02    1.53       2.6  T
  13    -10.4199744 -0.245440E-06  0.884E-03    1.53       3.6  T
  14    -10.4199762 -0.170274E-05  0.373E-03    1.53       8.5  T
  15    -10.4199762 -0.331956E-07  0.186E-03    1.53      17.0  T
  16    -10.4199762 -0.363581E-07  0.626E-04    1.53      50.5  T
  17    -10.4199762 -0.442167E-08  0.134E-04    1.53     235.2  T
     SCC iter.                  ...        0 min,  0.004 sec
     gradient                   ...        0 min,  0.001 sec
 * total energy  :   -10.1903909 Eh     change        0.4048851E-04 Eh
   gradient norm :     0.1349890 Eh/α   predicted    -0.1268169E-01 (*******%)
   displ. norm   :     0.4237223 α      lambda       -0.2844295E-01
   maximum displ.:     0.2994487 α      in ANC's #5, #15, #8, ...

........................................................................
.............................. CYCLE   13 ..............................
........................................................................
   1    -10.4185323 -0.104185E+02  0.116E+00    1.55       0.0  T
   2    -10.3414511  0.770812E-01  0.234E+00    1.53       1.0  T
   3    -10.4017602 -0.603091E-01  0.129E+00    1.48       1.0  T
   4    -10.3981315  0.362867E-02  0.899E-01    1.59       1.0  T
   5    -10.4136591 -0.155276E-01  0.639E-01    1.53       1.0  T
   6    -10.4215602 -0.790109E-02  0.243E-01    1.55       1.0  T
   7    -10.4218461 -0.285896E-03  0.217E-01    1.55       1.0  T
   8    -10.4219848 -0.138703E-03  0.200E-01    1.54       1.0  T
   9    -10.4219870 -0.222977E-05  0.153E-01    1.54       1.0  T
  10    -10.4221693 -0.182256E-03  0.668E-02    1.54       1.0  T
  11    -10.4221870 -0.176694E-04  0.353E-02    1.55       1.0  T
  12    -10.4221880 -0.103145E-05  0.258E-02    1.54       1.2  T
  13    -10.4221909 -0.288178E-05  0.658E-03    1.54       4.8  T
  14    -10.4221910 -0.183106E-06  0.277E-03    1.54      11.4  T
  15    -10.4221911 -0.985727E-07  0.370E-04    1.54      85.6  T
  16    -10.4221911 -0.512888E-09  0.253E-04    1.54     125.1  T
     SCC iter.                  ...        0 min,  0.003 sec
     gradient                   ...        0 min,  0.001 sec
 * total energy  :   -10.2059220 Eh     change       -0.1553109E-01 Eh
   gradient norm :     0.0570523 Eh/α   predicted    -0.1677480E-01 (   8.01%)
   displ. norm   :     0.5548701 α      lambda       -0.1976852E-01
   maximum displ.:     0.1980951 α      in ANC's #4, #15, #13, ...

........................................................................
.............................. CYCLE   14 ..............................
........................................................................
   1    -10.4769250 -0.104769E+02  0.181E+00    1.47       0.0  T
   2    -10.0053187  0.471606E+00  0.528E+00    1.37       1.0  T
   3    -10.4619117 -0.456593E+00  0.211E+00    1.63       1.0  T
   4    -10.4688182 -0.690648E-02  0.141E+00    1.41       1.0  T
   5    -10.4875087 -0.186905E-01  0.803E-01    1.49       1.0  T
   6    -10.4494790  0.380297E-01  0.140E+00    1.55       1.0  T
   7    -10.4976413 -0.481623E-01  0.387E-01    1.52       1.0  T
   8    -10.4997859 -0.214469E-02  0.201E-01    1.51       1.0  T
   9    -10.5004153 -0.629317E-03  0.113E-01    1.53       1.0  T
  10    -10.5004012  0.141067E-04  0.748E-02    1.52       1.0  T
  11    -10.5004606 -0.594142E-04  0.473E-02    1.52       1.0  T
  12    -10.5004918 -0.311887E-04  0.382E-02    1.52       1.0  T
  13    -10.5004976 -0.582619E-05  0.247E-02    1.52       1.3  T
  14    -10.5004996 -0.204574E-05  0.135E-02    1.52       2.3  T
  15    -10.5005000 -0.374250E-06  0.933E-03    1.52       3.4  T
  16    -10.5005003 -0.312791E-06  0.360E-03    1.52       8.8  T
  17    -10.5005004 -0.406083E-07  0.102E-03    1.52      31.1  T
  18    -10.5005004 -0.144851E-08  0.904E-04    1.52      35.0  T
  19    -10.5005004 -0.298794E-08  0.216E-05    1.52    1462.0  T
     SCC iter.                  ...        0 min,  0.003 sec
     gradient                   ...        0 min,  0.002 sec
 * total energy  :   -10.2003610 Eh     change        0.5561041E-02 Eh
   gradient norm :     0.2574462 Eh/α   predicted    -0.1292744E-01 (-332.46%)
   displ. norm   :     0.3703731 α      lambda       -0.3751537E-01
   maximum displ.:     0.1994274 α      in ANC's #5, #9, #15, ...

........................................................................
.............................. CYCLE   15 ..............................
........................................................................
   1    -10.4468394 -0.104468E+02  0.122E+00    1.35       0.0  T
   2    -10.2555683  0.191271E+00  0.364E+00    1.09       1.0  T
   3    -10.4486695 -0.193101E+00  0.109E+00    1.36       1.0  T
   4    -10.4078659  0.408036E-01  0.145E+00    1.41       1.0  T
   5    -10.4327886 -0.249227E-01  0.969E-01    1.37       1.0  T
   6    -10.4516696 -0.188810E-01  0.512E-01    1.34       1.0  T
   7    -10.4565223 -0.485266E-02  0.244E-01    1.40       1.0  T
   8    -10.4574560 -0.933713E-03  0.669E-02    1.38       1.0  T
   9    -10.4573771  0.788482E-04  0.672E-02    1.38       1.0  T
  10    -10.4574585 -0.813722E-04  0.365E-02    1.38       1.0  T
  11    -10.4574844 -0.259297E-04  0.224E-02    1.38       1.4  T
  12    -10.4574871 -0.262150E-05  0.160E-02    1.38       2.0  T
  13    -10.4574892 -0.210207E-05  0.277E-03    1.38      11.4  T
  14    -10.4574894 -0.227217E-06  0.167E-03    1.38      18.9  T
  15    -10.4574894 -0.276672E-07  0.289E-04    1.38     109.3  T
  16    -10.4574894 -0.119511E-08  0.938E-05    1.38     337.0  T
     SCC iter.                  ...        0 min,  0.002 sec
     gradient                   ...        0 min,  0.001 sec
 * total energy  :   -10.2205689 Eh     change       -0.2020786E-01 Eh
   gradient norm :     0.0385604 Eh/α   predicted    -0.2133079E-01 (   5.56%)
   displ. norm   :     0.6583316 α      lambda       -0.1474272E-01
   maximum displ.:     0.3653171 α      in ANC's #1, #5, #15, ...

........................................................................
.............................. CYCLE   16 ..............................
........................................................................
   1    -10.4591022 -0.104591E+02  0.193E+00    1.21       0.0  T
   2    -10.3893663  0.697359E-01  0.211E+00    1.04       1.0  T
   3    -10.2823207  0.107046E+00  0.308E+00    1.32       1.0  T
   4    -10.4263693 -0.144049E+00  0.121E+00    1.20       1.0  T
   5    -10.3678062  0.585631E-01  0.195E+00    1.11       1.0  T
   6    -10.4506713 -0.828650E-01  0.581E-01    1.28       1.0  T
   7    -10.4614231 -0.107519E-01  0.301E-01    1.25       1.0  T
   8    -10.4619089 -0.485738E-03  0.274E-01    1.24       1.0  T
   9    -10.4616878  0.221068E-03  0.252E-01    1.23       1.0  T
  10    -10.4615189  0.168884E-03  0.207E-01    1.23       1.0  T
  11    -10.4620534 -0.534479E-03  0.867E-02    1.24       1.0  T
  12    -10.4621622 -0.108838E-03  0.621E-02    1.24       1.0  T
  13    -10.4621951 -0.328975E-04  0.302E-02    1.24       1.0  T
  14    -10.4622123 -0.171987E-04  0.122E-02    1.24       2.6  T
  15    -10.4622140 -0.164528E-05  0.521E-03    1.24       6.1  T
  16    -10.4622142 -0.262245E-06  0.918E-04    1.24      34.4  T
  17    -10.4622142 -0.872037E-08  0.343E-04    1.24      92.2  T
     SCC iter.                  ...        0 min,  0.003 sec
     gradient                   ...        0 min,  0.001 sec
 * total energy  :   -10.2246878 Eh     change       -0.4118896E-02 Eh
   gradient norm :     0.0836396 Eh/α   predicted    -0.1056610E-01 ( 156.53%)
   displ. norm   :     0.5020247 α      lambda       -0.1464188E-01
   maximum displ.:     0.2515950 α      in ANC's #7, #5, #2, ...

........................................................................
.............................. CYCLE   17 ..............................
........................................................................
   1    -10.4452069 -0.104452E+02  0.131E+00    1.18       0.0  T
   2    -10.3946271  0.505798E-01  0.175E+00    1.20       1.0  T
   3    -10.3924188  0.220825E-02  0.169E+00    1.05       1.0  T
   4    -10.4369026 -0.444838E-01  0.891E-01    1.12       1.0  T
   5    -10.4417897 -0.488712E-02  0.499E-01    1.21       1.0  T
   6    -10.4469286 -0.513885E-02  0.237E-01    1.15       1.0  T
   7    -10.4470723 -0.143719E-03  0.199E-01    1.16       1.0  T
   8    -10.4470972 -0.248539E-04  0.196E-01    1.16       1.0  T
   9    -10.4472200 -0.122895E-03  0.651E-02    1.16       1.0  T
  10    -10.4472592 -0.391937E-04  0.312E-02    1.17       1.0  T
  11    -10.4472656 -0.639181E-05  0.205E-02    1.17       1.5  T
  12    -10.4472693 -0.365044E-05  0.120E-02    1.17       2.6  T
  13    -10.4472718 -0.251227E-05  0.217E-03    1.17      14.6  T
  14    -10.4472719 -0.704243E-07  0.669E-04    1.17      47.3  T
  15    -10.4472719 -0.881682E-08  0.318E-04    1.17      99.5  T
     SCC iter.                  ...        0 min,  0.002 sec
     gradient                   ...        0 min,  0.000 sec
 * total energy  :   -10.2330043 Eh     change       -0.8316587E-02 Eh
   gradient norm :     0.0624592 Eh/α   predicted    -0.9166021E-02 (  10.21%)
   displ. norm   :     0.4975301 α      lambda       -0.1538016E-01
   maximum displ.:     0.2910356 α      in ANC's #2, #18, #8, ...

........................................................................
.............................. CYCLE   18 ..............................
........................................................................
   1    -10.4995652 -0.104996E+02  0.117E+00    1.24       0.0  T
   2    -10.4059354  0.936298E-01  0.256E+00    1.16       1.0  T
   3    -10.5029992 -0.970638E-01  0.812E-01    1.18       1.0  T
   4    -10.4604704  0.425288E-01  0.121E+00    1.23       1.0  T
   5    -10.4848022 -0.243317E-01  0.724E-01    1.19       1.0  T
   6    -10.5014149 -0.166127E-01  0.309E-01    1.20       1.0  T
   7    -10.5031333 -0.171843E-02  0.199E-01    1.18       1.0  T
   8    -10.5041230 -0.989739E-03  0.713E-02    1.20       1.0  T
   9    -10.5040456  0.773767E-04  0.749E-02    1.19       1.0  T
  10    -10.5041981 -0.152414E-03  0.128E-02    1.19       2.5  T
  11    -10.5042001 -0.200926E-05  0.586E-03    1.19       5.4  T
  12    -10.5042005 -0.412741E-06  0.297E-03    1.19      10.7  T
  13    -10.5042005 -0.313235E-07  0.124E-03    1.19      25.6  T
  14    -10.5042005 -0.737412E-08  0.475E-04    1.19      66.6  T
  15    -10.5042005 -0.322617E-09  0.131E-04    1.19     241.2  T
     SCC iter.                  ...        0 min,  0.003 sec
     gradient                   ...        0 min,  0.000 sec
 * total energy  :   -10.2377240 Eh     change       -0.4719632E-02 Eh
   gradient norm :     0.0649917 Eh/α   predicted    -0.9593673E-02 ( 103.27%)
   displ. norm   :     0.6063989 α      lambda       -0.1426021E-01
   maximum displ.:     0.3195804 α      in ANC's #5, #15, #2, ...

........................................................................
.............................. CYCLE   19 ..............................
........................................................................
   1    -10.4859940 -0.104860E+02  0.167E+00    1.06       0.0  T
   2    -10.4669261  0.190679E-01  0.142E+00    1.24       1.0  T
   3    -10.4559772  0.109489E-01  0.179E+00    0.89       1.0  T
   4    -10.4657045 -0.972728E-02  0.860E-01    1.07       1.0  T
   5    -10.4859320 -0.202275E-01  0.382E-01    1.08       1.0  T
   6    -10.4877740 -0.184196E-02  0.261E-01    1.10       1.0  T
   7    -10.4884391 -0.665112E-03  0.204E-01    1.11       1.0  T
   8    -10.4888267 -0.387564E-03  0.104E-01    1.11       1.0  T
   9    -10.4888931 -0.664355E-04  0.281E-02    1.12       1.1  T
  10    -10.4889056 -0.124888E-04  0.870E-03    1.12       3.6  T
  11    -10.4889058 -0.245673E-06  0.609E-03    1.12       5.2  T
  12    -10.4889058  0.338997E-08  0.407E-03    1.12       7.8  T
  13    -10.4889060 -0.125288E-06  0.106E-03    1.12      30.0  T
  14    -10.4889060 -0.111942E-07  0.214E-04    1.12     147.6  T
  15    -10.4889060  0.821814E-10  0.221E-04    1.12     143.0  T
     SCC iter.                  ...        0 min,  0.003 sec
     gradient                   ...        0 min,  0.000 sec
 * total energy  :   -10.2460069 Eh     change       -0.8282913E-02 Eh
   gradient norm :     0.0766917 Eh/α   predicted    -0.9751952E-02 (  17.74%)
   displ. norm   :     0.5456925 α      lambda       -0.1617168E-01
   maximum displ.:     0.2801272 α      in ANC's #1, #23, #11, ...

........................................................................
.............................. CYCLE   20 ..............................
........................................................................
   1    -10.4574726 -0.104575E+02  0.189E+00    0.96       0.0  T
   2    -10.4006782  0.567944E-01  0.204E+00    1.11       1.0  T
   3    -10.3131058  0.875724E-01  0.263E+00    1.00       1.0  T
   4    -10.4152675 -0.102162E+00  0.121E+00    0.90       1.0  T
   5    -10.3822852  0.329822E-01  0.161E+00    1.09       1.0  T
   6    -10.4574855 -0.752003E-01  0.461E-01    1.08       1.0  T
   7    -10.4597335 -0.224794E-02  0.282E-01    1.04       1.0  T
   8    -10.4607057 -0.972274E-03  0.233E-01    1.03       1.0  T
   9    -10.4597372  0.968549E-03  0.234E-01    1.03       1.0  T
  10    -10.4607918 -0.105458E-02  0.807E-02    1.03       1.0  T
  11    -10.4609078 -0.116000E-03  0.298E-02    1.02       1.1  T
  12    -10.4608965  0.112969E-04  0.327E-02    1.02       1.0  T
  13    -10.4609185 -0.220579E-04  0.137E-02    1.02       2.3  T
  14    -10.4609232 -0.463815E-05  0.266E-03    1.02      11.9  T
  15    -10.4609232  0.101735E-07  0.201E-03    1.02      15.7  T
  16    -10.4609232 -0.585195E-07  0.566E-04    1.02      55.9  T
  17    -10.4609232 -0.769053E-08  0.927E-05    1.02     341.2  T
     SCC iter.                  ...        0 min,  0.003 sec
     gradient                   ...        0 min,  0.001 sec
 * total energy  :   -10.2495080 Eh     change       -0.3501137E-02 Eh
   gradient norm :     0.1207893 Eh/α   predicted    -0.1049363E-01 ( 199.72%)
   displ. norm   :     0.4023445 α      lambda       -0.1773137E-01
   maximum displ.:     0.1802683 α      in ANC's #9, #13, #11, ...
 * RMSD in coord.:     1.9809394 α      energy gain  -0.6398825E+00 Eh

generating ANC from model Hessian ...
Using Lindh-Hessian (1995)
 Shifting diagonal of input Hessian by    1.0379068153146530E-002
 Lowest  eigenvalues of input Hessian
    0.010000    0.010049    0.010195    0.010342    0.000000    0.000000
    0.000000    0.000000    0.000000    0.000000    0.010386    0.010456
    0.010510    0.010814    0.011138    0.014053    0.022573    0.030302
 Highest eigenvalues
    0.484752    0.522022    0.598254    0.900348    1.300055    2.148442


........................................................................
.............................. CYCLE   21 ..............................
........................................................................
   1    -10.4651964 -0.104652E+02  0.121E+00    1.05       0.0  T
   2    -10.4013550  0.638414E-01  0.202E+00    0.91       1.0  T
   3    -10.4553533 -0.539983E-01  0.941E-01    1.09       1.0  T
   4    -10.4044087  0.509446E-01  0.144E+00    0.99       1.0  T
   5    -10.4593422 -0.549335E-01  0.714E-01    0.97       1.0  T
   6    -10.4685076 -0.916536E-02  0.278E-01    1.03       1.0  T
   7    -10.4705022 -0.199459E-02  0.148E-01    1.02       1.0  T
   8    -10.4705159 -0.136977E-04  0.145E-01    1.02       1.0  T
   9    -10.4706258 -0.109922E-03  0.564E-02    1.03       1.0  T
  10    -10.4707034 -0.776238E-04  0.242E-02    1.03       1.3  T
  11    -10.4707164 -0.130146E-04  0.110E-02    1.03       2.9  T
  12    -10.4707168 -0.357643E-06  0.658E-03    1.03       4.8  T
  13    -10.4707174 -0.622495E-06  0.133E-03    1.03      23.8  T
  14    -10.4707174 -0.249935E-08  0.814E-04    1.03      38.8  T
  15    -10.4707174 -0.423929E-08  0.204E-04    1.03     155.3  T
     SCC iter.                  ...        0 min,  0.002 sec
     gradient                   ...        0 min,  0.001 sec
 * total energy  :   -10.2630848 Eh     change       -0.1357678E-01 Eh
   gradient norm :     0.0617319 Eh/α   predicted     0.0000000E+00 (-100.00%)
   displ. norm   :     0.5852981 α      lambda       -0.2684274E-01
   maximum displ.:     0.4954148 α      in ANC's #13, #10, #16, ...

........................................................................
.............................. CYCLE   22 ..............................
........................................................................
   1    -10.5006727 -0.105007E+02  0.178E+00    0.96       0.0  T
   2    -10.4154580  0.852147E-01  0.256E+00    0.73       1.0  T
   3    -10.4668273 -0.513693E-01  0.141E+00    1.12       1.0  T
   4    -10.4285016  0.383258E-01  0.177E+00    0.92       1.0  T
   5    -10.5065601 -0.780585E-01  0.882E-01    0.92       1.0  T
   6    -10.5148883 -0.832822E-02  0.483E-01    1.01       1.0  T
   7    -10.5204738 -0.558547E-02  0.235E-01    1.00       1.0  T
   8    -10.5200350  0.438776E-03  0.231E-01    0.99       1.0  T
   9    -10.5207933 -0.758310E-03  0.686E-02    1.01       1.0  T
  10    -10.5208300 -0.367116E-04  0.431E-02    1.00       1.0  T
  11    -10.5208401 -0.100869E-04  0.211E-02    1.00       1.5  T
  12    -10.5208414 -0.133802E-05  0.492E-03    1.00       6.4  T
  13    -10.5208415 -0.976158E-07  0.205E-03    1.00      15.4  T
  14    -10.5208416 -0.661194E-07  0.674E-04    1.00      46.9  T
  15    -10.5208416 -0.331701E-08  0.881E-05    1.00     359.1  T
     SCC iter.                  ...        0 min,  0.002 sec
     gradient                   ...        0 min,  0.001 sec
 * total energy  :   -10.2908404 Eh     change       -0.2775562E-01 Eh
   gradient norm :     0.1089753 Eh/α   predicted    -0.1801918E-01 ( -35.08%)
   displ. norm   :     0.6171834 α      lambda       -0.3958168E-01
   maximum displ.:     0.5731112 α      in ANC's #13, #17, #16, ...

........................................................................
.............................. CYCLE   23 ..............................
........................................................................
   1    -10.5550511 -0.105551E+02  0.142E+00    0.93       0.0  T
   2    -10.5340031  0.210480E-01  0.161E+00    0.76       1.0  T
   3    -10.5324682  0.153486E-02  0.114E+00    1.01       1.0  T
   4    -10.4768810  0.555872E-01  0.170E+00    0.80       1.0  T
   5    -10.5557419 -0.788609E-01  0.645E-01    0.85       1.0  T
   6    -10.5567024 -0.960473E-03  0.463E-01    0.93       1.0  T
   7    -10.5626034 -0.590103E-02  0.186E-01    0.91       1.0  T
   8    -10.5625603  0.430609E-04  0.164E-01    0.91       1.0  T
   9    -10.5626550 -0.946110E-04  0.877E-02    0.93       1.0  T
  10    -10.5627433 -0.883598E-04  0.331E-02    0.92       1.0  T
  11    -10.5627470 -0.373703E-05  0.268E-02    0.91       1.2  T
  12    -10.5627483 -0.123851E-05  0.416E-03    0.91       7.6  T
  13    -10.5627482  0.882639E-07  0.224E-03    0.91      14.1  T
  14    -10.5627483 -0.150003E-06  0.489E-04    0.91      64.6  T
  15    -10.5627483 -0.485873E-09  0.121E-04    0.91     262.1  T
     SCC iter.                  ...        0 min,  0.002 sec
     gradient                   ...        0 min,  0.001 sec
 * total energy  :   -10.3279765 Eh     change       -0.3713610E-01 Eh
   gradient norm :     0.0890733 Eh/α   predicted    -0.2732948E-01 ( -26.41%)
   displ. norm   :     0.5176008 α      lambda       -0.2450769E-01
   maximum displ.:     0.2254085 α      in ANC's #10, #5, #13, ...

........................................................................
.............................. CYCLE   24 ..............................
........................................................................
   1    -10.5690172 -0.105690E+02  0.130E+00    0.78       0.0  T
   2    -10.5562936  0.127237E-01  0.113E+00    0.97       1.0  T
   3    -10.5076728  0.486208E-01  0.183E+00    0.60       1.0  T
   4    -10.5422812 -0.346085E-01  0.101E+00    0.82       1.0  T
   5    -10.5452637 -0.298251E-02  0.862E-01    0.84       1.0  T
   6    -10.5700567 -0.247930E-01  0.218E-01    0.84       1.0  T
   7    -10.5703669 -0.310194E-03  0.144E-01    0.84       1.0  T
   8    -10.5703599  0.702398E-05  0.133E-01    0.84       1.0  T
   9    -10.5703538  0.603491E-05  0.758E-02    0.84       1.0  T
  10    -10.5704503 -0.964994E-04  0.176E-02    0.84       1.8  T
  11    -10.5704482  0.207743E-05  0.147E-02    0.84       2.2  T
  12    -10.5704528 -0.453471E-05  0.687E-03    0.84       4.6  T
  13    -10.5704538 -0.103288E-05  0.197E-03    0.84      16.0  T
  14    -10.5704539 -0.453152E-07  0.515E-04    0.84      61.4  T
  15    -10.5704539 -0.735955E-08  0.261E-04    0.84     121.1  T
     SCC iter.                  ...        0 min,  0.003 sec
     gradient                   ...        0 min,  0.001 sec
 * total energy  :   -10.3065071 Eh     change        0.2146945E-01 Eh
   gradient norm :     0.2910583 Eh/α   predicted    -0.1553679E-01 (-172.37%)
   displ. norm   :     0.3548746 α      lambda       -0.8236255E-01
   maximum displ.:     0.3108270 α      in ANC's #13, #12, #8, ...

........................................................................
.............................. CYCLE   25 ..............................
........................................................................
   1    -10.5512212 -0.105512E+02  0.645E-01    0.86       0.0  T
   2    -10.5511129  0.108330E-03  0.383E-01    0.84       1.0  T
   3    -10.5467616  0.435129E-02  0.514E-01    0.83       1.0  T
   4    -10.5390821  0.767945E-02  0.598E-01    0.91       1.0  T
   5    -10.5511505 -0.120684E-01  0.123E-01    0.86       1.0  T
   6    -10.5514223 -0.271740E-03  0.745E-02    0.84       1.0  T
   7    -10.5514315 -0.921211E-05  0.726E-02    0.85       1.0  T
   8    -10.5515111 -0.796009E-04  0.193E-02    0.85       1.6  T
   9    -10.5515189 -0.784464E-05  0.586E-03    0.85       5.4  T
  10    -10.5515187  0.268559E-06  0.473E-03    0.85       6.7  T
  11    -10.5515192 -0.588870E-06  0.154E-03    0.85      20.5  T
  12    -10.5515193 -0.331434E-07  0.512E-04    0.85      61.8  T
  13    -10.5515193 -0.392681E-08  0.192E-04    0.85     164.5  T
     SCC iter.                  ...        0 min,  0.002 sec
     gradient                   ...        0 min,  0.000 sec
 * total energy  :   -10.3332197 Eh     change       -0.2671260E-01 Eh
   gradient norm :     0.0698909 Eh/α   predicted    -0.4636747E-01 (  73.58%)
   displ. norm   :     0.6510055 α      lambda       -0.2055741E-01
   maximum displ.:     0.5292469 α      in ANC's #10, #7, #5, ...

........................................................................
.............................. CYCLE   26 ..............................
........................................................................
   1    -10.5599796 -0.105600E+02  0.142E+00    0.89       0.0  T
   2    -10.5594334  0.546155E-03  0.847E-01    0.86       1.0  T
   3    -10.5093443  0.500892E-01  0.136E+00    0.98       1.0  T
   4    -10.5559555 -0.466113E-01  0.382E-01    0.89       1.0  T
   5    -10.5583731 -0.241757E-02  0.244E-01    0.85       1.0  T
   6    -10.5600831 -0.171005E-02  0.746E-02    0.88       1.0  T
   7    -10.5601731 -0.899790E-04  0.501E-02    0.88       1.0  T
   8    -10.5601913 -0.181765E-04  0.339E-02    0.88       1.0  T
   9    -10.5602222 -0.308863E-04  0.130E-02    0.88       2.4  T
  10    -10.5602243 -0.216248E-05  0.663E-03    0.88       4.8  T
  11    -10.5602250 -0.651068E-06  0.233E-03    0.88      13.6  T
  12    -10.5602250 -0.252569E-07  0.102E-03    0.88      31.1  T
  13    -10.5602250 -0.752467E-08  0.358E-04    0.88      88.4  T
  14    -10.5602250 -0.106413E-08  0.583E-05    0.88     542.6  T
     SCC iter.                  ...        0 min,  0.003 sec
     gradient                   ...        0 min,  0.001 sec
 * total energy  :   -10.3303689 Eh     change        0.2850810E-02 Eh
   gradient norm :     0.0655571 Eh/α   predicted    -0.1463492E-01 (-613.36%)
   displ. norm   :     0.3723283 α      lambda       -0.1745608E-01
   maximum displ.:     0.3036279 α      in ANC's #10, #12, #13, ...

........................................................................
.............................. CYCLE   27 ..............................
........................................................................
   1    -10.5629407 -0.105629E+02  0.964E-01    0.90       0.0  T
   2    -10.5611834  0.175730E-02  0.658E-01    0.87       1.0  T
   3    -10.4859088  0.752745E-01  0.161E+00    1.01       1.0  T
   4    -10.5426237 -0.567148E-01  0.793E-01    0.87       1.0  T
   5    -10.5624812 -0.198575E-01  0.183E-01    0.87       1.0  T
   6    -10.5624075  0.736622E-04  0.169E-01    0.91       1.0  T
   7    -10.5631636 -0.756097E-03  0.607E-02    0.90       1.0  T
   8    -10.5631646 -0.935170E-06  0.515E-02    0.90       1.0  T
   9    -10.5631740 -0.944550E-05  0.170E-02    0.90       1.9  T
  10    -10.5631811 -0.711272E-05  0.507E-03    0.90       6.2  T
  11    -10.5631801  0.103692E-05  0.693E-03    0.90       4.6  T
  12    -10.5631812 -0.112105E-05  0.131E-03    0.90      24.1  T
  13    -10.5631812 -0.996554E-10  0.699E-04    0.90      45.2  T
  14    -10.5631812 -0.544073E-08  0.151E-04    0.90     209.3  T
     SCC iter.                  ...        0 min,  0.002 sec
     gradient                   ...        0 min,  0.000 sec
 * total energy  :   -10.3393407 Eh     change       -0.8971803E-02 Eh
   gradient norm :     0.0453673 Eh/α   predicted    -0.9938000E-02 (  10.77%)
   displ. norm   :     0.4775946 α      lambda       -0.8183601E-02
   maximum displ.:     0.2878049 α      in ANC's #7, #12, #16, ...

........................................................................
.............................. CYCLE   28 ..............................
........................................................................
   1    -10.5481947 -0.105482E+02  0.138E+00    0.73       0.0  T
   2    -10.5210797  0.271150E-01  0.145E+00    1.00       1.0  T
   3    -10.5003864  0.206933E-01  0.170E+00    0.58       1.0  T
   4    -10.5147761 -0.143897E-01  0.120E+00    0.82       1.0  T
   5    -10.5135577  0.121841E-02  0.107E+00    0.80       1.0  T
   6    -10.5504425 -0.368849E-01  0.250E-01    0.80       1.0  T
   7    -10.5507499 -0.307410E-03  0.187E-01    0.80       1.0  T
   8    -10.5508728 -0.122886E-03  0.169E-01    0.81       1.0  T
   9    -10.5508266  0.461705E-04  0.975E-02    0.80       1.0  T
  10    -10.5509103 -0.836597E-04  0.239E-02    0.80       1.3  T
  11    -10.5509170 -0.666875E-05  0.213E-02    0.80       1.5  T
  12    -10.5509156  0.135606E-05  0.163E-02    0.80       1.9  T
  13    -10.5509225 -0.690256E-05  0.308E-03    0.80      10.3  T
  14    -10.5509226 -0.107103E-06  0.724E-04    0.80      43.7  T
  15    -10.5509226 -0.804914E-08  0.434E-04    0.80      72.8  T
     SCC iter.                  ...        0 min,  0.003 sec
     gradient                   ...        0 min,  0.000 sec
 * total energy  :   -10.3328903 Eh     change        0.6450347E-02 Eh
   gradient norm :     0.1108247 Eh/α   predicted    -0.5025124E-02 (-177.90%)
   displ. norm   :     0.2878541 α      lambda       -0.1559769E-01
   maximum displ.:     0.1707766 α      in ANC's #8, #2, #7, ...

........................................................................
.............................. CYCLE   29 ..............................
........................................................................
   1    -10.5678268 -0.105678E+02  0.691E-01    0.93       0.0  T
   2    -10.5574066  0.104202E-01  0.842E-01    0.76       1.0  T
   3    -10.5586391 -0.123250E-02  0.730E-01    0.98       1.0  T
   4    -10.5540383  0.460079E-02  0.735E-01    0.89       1.0  T
   5    -10.5653548 -0.113166E-01  0.370E-01    0.89       1.0  T
   6    -10.5686524 -0.329758E-02  0.132E-01    0.89       1.0  T
   7    -10.5689840 -0.331557E-03  0.769E-02    0.90       1.0  T
   8    -10.5690284 -0.444678E-04  0.656E-02    0.90       1.0  T
   9    -10.5690736 -0.451511E-04  0.128E-02    0.90       2.5  T
  10    -10.5690764 -0.282651E-05  0.604E-03    0.89       5.2  T
  11    -10.5690767 -0.319067E-06  0.369E-03    0.89       8.6  T
  12    -10.5690769 -0.132575E-06  0.822E-04    0.89      38.5  T
  13    -10.5690769 -0.192555E-08  0.624E-04    0.89      50.7  T
     SCC iter.                  ...        0 min,  0.002 sec
     gradient                   ...        0 min,  0.001 sec
 * total energy  :   -10.3413784 Eh     change       -0.8488063E-02 Eh
   gradient norm :     0.0204886 Eh/α   predicted    -0.8445064E-02 (  -0.51%)
   displ. norm   :     0.2905237 α      lambda       -0.2319335E-02
   maximum displ.:     0.1733496 α      in ANC's #7, #11, #12, ...

........................................................................
.............................. CYCLE   30 ..............................
........................................................................
   1    -10.5680320 -0.105680E+02  0.876E-01    0.87       0.0  T
   2    -10.5672914  0.740580E-03  0.580E-01    0.85       1.0  T
   3    -10.5377099  0.295814E-01  0.130E+00    1.00       1.0  T
   4    -10.5668949 -0.291849E-01  0.279E-01    0.84       1.0  T
   5    -10.5680687 -0.117380E-02  0.732E-02    0.87       1.0  T
   6    -10.5679118  0.156823E-03  0.919E-02    0.87       1.0  T
   7    -10.5681408 -0.228926E-03  0.345E-02    0.87       1.0  T
   8    -10.5681228  0.179748E-04  0.356E-02    0.87       1.0  T
   9    -10.5681443 -0.214710E-04  0.927E-03    0.87       3.4  T
  10    -10.5681444 -0.145054E-06  0.635E-03    0.87       5.0  T
  11    -10.5681450 -0.621871E-06  0.254E-03    0.87      12.5  T
  12    -10.5681451 -0.982558E-07  0.674E-04    0.87      46.9  T
  13    -10.5681451 -0.588022E-09  0.128E-04    0.87     247.6  T
     SCC iter.                  ...        0 min,  0.002 sec
     gradient                   ...        0 min,  0.001 sec
 * total energy  :   -10.3418035 Eh     change       -0.4251545E-03 Eh
   gradient norm :     0.0335802 Eh/α   predicted    -0.1257547E-02 ( 195.79%)
   displ. norm   :     0.3013628 α      lambda       -0.2366053E-02
   maximum displ.:     0.1936900 α      in ANC's #8, #2, #3, ...

........................................................................
.............................. CYCLE   31 ..............................
........................................................................
   1    -10.5656125 -0.105656E+02  0.636E-01    0.87       0.0  T
   2    -10.5653502  0.262381E-03  0.430E-01    0.90       1.0  T
   3    -10.5560503  0.929986E-02  0.763E-01    0.77       1.0  T
   4    -10.5644409 -0.839063E-02  0.281E-01    0.90       1.0  T
   5    -10.5656178 -0.117691E-02  0.694E-02    0.87       1.0  T
   6    -10.5655304  0.874040E-04  0.676E-02    0.88       1.0  T
   7    -10.5656393 -0.108905E-03  0.364E-02    0.88       1.0  T
   8    -10.5656630 -0.236462E-04  0.235E-02    0.88       1.3  T
   9    -10.5656726 -0.958545E-05  0.409E-03    0.88       7.7  T
  10    -10.5656728 -0.221962E-06  0.202E-03    0.88      15.7  T
  11    -10.5656729 -0.475919E-07  0.653E-04    0.88      48.4  T
  12    -10.5656729 -0.138145E-08  0.405E-04    0.88      78.0  T
     SCC iter.                  ...        0 min,  0.002 sec
     gradient                   ...        0 min,  0.000 sec
 * total energy  :   -10.3430183 Eh     change       -0.1214731E-02 Eh
   gradient norm :     0.0249891 Eh/α   predicted    -0.1290472E-02 (   6.24%)
   displ. norm   :     0.3503074 α      lambda       -0.2828419E-02
   maximum displ.:     0.2062053 α      in ANC's #7, #2, #3, ...

........................................................................
.............................. CYCLE   32 ..............................
........................................................................
   1    -10.5786597 -0.105787E+02  0.864E-01    0.91       0.0  T
   2    -10.5779004  0.759354E-03  0.590E-01    0.88       1.0  T
   3    -10.5076498  0.702506E-01  0.153E+00    1.05       1.0  T
   4    -10.5700124 -0.623626E-01  0.507E-01    0.88       1.0  T
   5    -10.5782184 -0.820603E-02  0.174E-01    0.87       1.0  T
   6    -10.5784627 -0.244310E-03  0.106E-01    0.90       1.0  T
   7    -10.5786984 -0.235721E-03  0.610E-02    0.89       1.0  T
   8    -10.5787048 -0.641333E-05  0.554E-02    0.89       1.0  T
   9    -10.5787333 -0.284627E-04  0.110E-02    0.90       2.9  T
  10    -10.5787347 -0.139662E-05  0.446E-03    0.89       7.1  T
  11    -10.5787344  0.269170E-06  0.411E-03    0.89       7.7  T
  12    -10.5787348 -0.361297E-06  0.111E-03    0.89      28.4  T
  13    -10.5787348 -0.395351E-08  0.345E-04    0.89      91.6  T
  14    -10.5787348  0.195017E-09  0.247E-04    0.89     128.1  T
     SCC iter.                  ...        0 min,  0.007 sec
     gradient                   ...        0 min,  0.001 sec
 * total energy  :   -10.3439133 Eh     change       -0.8950520E-03 Eh
   gradient norm :     0.0248371 Eh/α   predicted    -0.1587755E-02 (  77.39%)
   displ. norm   :     0.2960814 α      lambda       -0.1775170E-02
   maximum displ.:     0.1457512 α      in ANC's #2, #12, #11, ...

........................................................................
.............................. CYCLE   33 ..............................
........................................................................
   1    -10.5731714 -0.105732E+02  0.787E-01    0.87       0.0  T
   2    -10.5729675  0.203884E-03  0.526E-01    0.90       1.0  T
   3    -10.5566295  0.163380E-01  0.935E-01    0.72       1.0  T
   4    -10.5703779 -0.137484E-01  0.365E-01    0.89       1.0  T
   5    -10.5722685 -0.189058E-02  0.178E-01    0.88       1.0  T
   6    -10.5731422 -0.873683E-03  0.811E-02    0.88       1.0  T
   7    -10.5732228 -0.806209E-04  0.459E-02    0.88       1.0  T
   8    -10.5732214  0.143123E-05  0.355E-02    0.88       1.0  T
   9    -10.5732389 -0.175008E-04  0.797E-03    0.88       4.0  T
  10    -10.5732391 -0.199467E-06  0.634E-03    0.88       5.0  T
  11    -10.5732390  0.135133E-06  0.507E-03    0.88       6.2  T
  12    -10.5732395 -0.526865E-06  0.449E-04    0.88      70.4  T
  13    -10.5732395  0.760618E-09  0.230E-04    0.88     137.7  T
     SCC iter.                  ...        0 min,  0.002 sec
     gradient                   ...        0 min,  0.000 sec
 * total energy  :   -10.3452522 Eh     change       -0.1338926E-02 Eh
   gradient norm :     0.0181985 Eh/α   predicted    -0.9653894E-03 ( -27.90%)
   displ. norm   :     0.4397117 α      lambda       -0.2238663E-02
   maximum displ.:     0.2683176 α      in ANC's #2, #5, #16, ...

........................................................................
.............................. CYCLE   34 ..............................
........................................................................
   1    -10.5751801 -0.105752E+02  0.827E-01    0.88       0.0  T
   2    -10.5727111  0.246898E-02  0.696E-01    0.84       1.0  T
   3    -10.5577181  0.149930E-01  0.985E-01    0.98       1.0  T
   4    -10.5719137 -0.141955E-01  0.422E-01    0.82       1.0  T
   5    -10.5749467 -0.303301E-02  0.162E-01    0.86       1.0  T
   6    -10.5750388 -0.921176E-04  0.119E-01    0.88       1.0  T
   7    -10.5754393 -0.400490E-03  0.504E-02    0.88       1.0  T
   8    -10.5754767 -0.374075E-04  0.249E-02    0.87       1.3  T
   9    -10.5754817 -0.499469E-05  0.103E-02    0.88       3.1  T
  10    -10.5754825 -0.824673E-06  0.709E-03    0.88       4.5  T
  11    -10.5754825  0.452020E-07  0.540E-03    0.88       5.9  T
  12    -10.5754831 -0.670168E-06  0.707E-04    0.88      44.8  T
  13    -10.5754831 -0.202648E-08  0.106E-04    0.88     299.4  T
     SCC iter.                  ...        0 min,  0.002 sec
     gradient                   ...        0 min,  0.001 sec
 * total energy  :   -10.3457563 Eh     change       -0.5040554E-03 Eh
   gradient norm :     0.0235184 Eh/α   predicted    -0.1335750E-02 ( 165.00%)
   displ. norm   :     0.3914084 α      lambda       -0.2249245E-02
   maximum displ.:     0.1550307 α      in ANC's #2, #7, #3, ...

........................................................................
.............................. CYCLE   35 ..............................
........................................................................
   1    -10.5594221 -0.105594E+02  0.110E+00    0.84       0.0  T
   2    -10.5572847  0.213737E-02  0.754E-01    0.92       1.0  T
   3    -10.4991563  0.581284E-01  0.195E+00    0.61       1.0  T
   4    -10.5538680 -0.547117E-01  0.501E-01    0.84       1.0  T
   5    -10.5515478  0.232026E-02  0.499E-01    0.84       1.0  T
   6    -10.5594851 -0.793731E-02  0.130E-01    0.87       1.0  T
   7    -10.5596625 -0.177439E-03  0.827E-02    0.87       1.0  T
   8    -10.5595720  0.905067E-04  0.782E-02    0.86       1.0  T
   9    -10.5596626 -0.905620E-04  0.368E-02    0.86       1.0  T
  10    -10.5597034 -0.407968E-04  0.113E-02    0.86       2.8  T
  11    -10.5597034 -0.359008E-07  0.774E-03    0.86       4.1  T
  12    -10.5597039 -0.520377E-06  0.248E-03    0.86      12.8  T
  13    -10.5597040 -0.821088E-07  0.114E-03    0.86      27.7  T
  14    -10.5597040 -0.392831E-08  0.289E-04    0.86     109.5  T
  15    -10.5597040 -0.183000E-09  0.957E-05    0.86     330.6  T
     SCC iter.                  ...        0 min,  0.003 sec
     gradient                   ...        0 min,  0.001 sec
 * total energy  :   -10.3453490 Eh     change        0.4073330E-03 Eh
   gradient norm :     0.0417276 Eh/α   predicted    -0.1296914E-02 (-418.39%)
   displ. norm   :     0.3435474 α      lambda       -0.5004518E-02
   maximum displ.:     0.2113411 α      in ANC's #6, #7, #4, ...

........................................................................
.............................. CYCLE   36 ..............................
........................................................................
   1    -10.5718638 -0.105719E+02  0.996E-01    0.85       0.0  T
   2    -10.5656421  0.622171E-02  0.799E-01    0.95       1.0  T
   3    -10.5307088  0.349332E-01  0.164E+00    0.70       1.0  T
   4    -10.5708510 -0.401421E-01  0.257E-01    0.85       1.0  T
   5    -10.5694972  0.135374E-02  0.296E-01    0.86       1.0  T
   6    -10.5720951 -0.259788E-02  0.127E-01    0.88       1.0  T
   7    -10.5723425 -0.247445E-03  0.781E-02    0.88       1.0  T
   8    -10.5723073  0.352039E-04  0.540E-02    0.87       1.0  T
   9    -10.5723547 -0.473566E-04  0.206E-02    0.87       1.5  T
  10    -10.5723649 -0.102031E-04  0.572E-03    0.87       5.5  T
  11    -10.5723652 -0.284321E-06  0.379E-03    0.87       8.4  T
  12    -10.5723655 -0.306803E-06  0.604E-04    0.87      52.3  T
  13    -10.5723655  0.879638E-09  0.521E-04    0.87      60.7  T
     SCC iter.                  ...        0 min,  0.004 sec
     gradient                   ...        0 min,  0.000 sec
 * total energy  :   -10.3440141 Eh     change        0.1334853E-02 Eh
   gradient norm :     0.0625176 Eh/α   predicted    -0.2797594E-02 (-309.58%)
   displ. norm   :     0.3096890 α      lambda       -0.7157039E-02
   maximum displ.:     0.1577087 α      in ANC's #11, #12, #7, ...

........................................................................
.............................. CYCLE   37 ..............................
........................................................................
   1    -10.5855860 -0.105856E+02  0.128E+00    0.94       0.0  T
   2    -10.5719300  0.136559E-01  0.109E+00    0.75       1.0  T
   3    -10.5310367  0.408933E-01  0.180E+00    1.11       1.0  T
   4    -10.5839173 -0.528806E-01  0.509E-01    0.89       1.0  T
   5    -10.5761769  0.774040E-02  0.598E-01    0.89       1.0  T
   6    -10.5855252 -0.934831E-02  0.256E-01    0.86       1.0  T
   7    -10.5868061 -0.128087E-02  0.151E-01    0.88       1.0  T
   8    -10.5867906  0.154443E-04  0.130E-01    0.88       1.0  T
   9    -10.5867935 -0.292848E-05  0.740E-02    0.89       1.0  T
  10    -10.5869392 -0.145696E-03  0.231E-02    0.89       1.4  T
  11    -10.5869499 -0.106895E-04  0.100E-02    0.89       3.1  T
  12    -10.5869508 -0.854889E-06  0.255E-03    0.89      12.4  T
  13    -10.5869508 -0.532678E-07  0.115E-03    0.89      27.5  T
  14    -10.5869508 -0.202735E-08  0.405E-04    0.89      78.2  T
  15    -10.5869508 -0.166295E-08  0.130E-04    0.89     242.5  T
     SCC iter.                  ...        0 min,  0.003 sec
     gradient                   ...        0 min,  0.001 sec
 * total energy  :   -10.3466955 Eh     change       -0.2681384E-02 Eh
   gradient norm :     0.0202513 Eh/α   predicted    -0.3921728E-02 (  46.26%)
   displ. norm   :     0.3835117 α      lambda       -0.1824455E-02
   maximum displ.:     0.1867972 α      in ANC's #2, #12, #3, ...

........................................................................
.............................. CYCLE   38 ..............................
........................................................................
   1    -10.5707041 -0.105707E+02  0.918E-01    0.85       0.0  T
   2    -10.5703292  0.374930E-03  0.635E-01    0.88       1.0  T
   3    -10.5550153  0.153139E-01  0.868E-01    0.81       1.0  T
   4    -10.5561798 -0.116451E-02  0.677E-01    0.83       1.0  T
   5    -10.5705960 -0.144163E-01  0.144E-01    0.88       1.0  T
   6    -10.5707023 -0.106292E-03  0.108E-01    0.86       1.0  T
   7    -10.5708171 -0.114774E-03  0.585E-02    0.87       1.0  T
   8    -10.5707879  0.292178E-04  0.501E-02    0.87       1.0  T
   9    -10.5708667 -0.788212E-04  0.100E-02    0.87       3.2  T
  10    -10.5708681 -0.135576E-05  0.564E-03    0.87       5.6  T
  11    -10.5708676  0.445223E-06  0.502E-03    0.87       6.3  T
  12    -10.5708684 -0.749801E-06  0.806E-04    0.87      39.2  T
  13    -10.5708684 -0.883609E-08  0.203E-04    0.87     156.0  T
     SCC iter.                  ...        0 min,  0.002 sec
[...]
   gradient norm :     0.0009143 Eh/α   predicted    -0.1901888E-04 (  -0.88%)
   displ. norm   :     0.0799592 α      lambda       -0.1379970E-04
   maximum displ.:     0.0500333 α      in ANC's #10, #7, #8, ...

........................................................................
.............................. CYCLE   77 ..............................
........................................................................
   1    -10.5956561 -0.105957E+02  0.101E-01    0.87       0.0  T
   2    -10.5956562 -0.105126E-06  0.624E-02    0.87       1.0  T
   3    -10.5956496  0.655222E-05  0.191E-02    0.86       1.7  T
   4    -10.5956547 -0.508815E-05  0.959E-03    0.87       3.3  T
   5    -10.5956555 -0.814116E-06  0.735E-03    0.87       4.3  T
   6    -10.5956515  0.402468E-05  0.128E-02    0.87       2.5  T
   7    -10.5956560 -0.445322E-05  0.369E-03    0.87       8.6  T
   8    -10.5956563 -0.381562E-06  0.144E-03    0.87      22.0  T
   9    -10.5956564 -0.393147E-07  0.210E-04    0.87     150.5  T
  10    -10.5956564  0.196216E-09  0.171E-04    0.87     184.4  T
     SCC iter.                  ...        0 min,  0.002 sec
     gradient                   ...        0 min,  0.000 sec
 * total energy  :   -10.3664655 Eh     change       -0.1575754E-04 Eh
   gradient norm :     0.0012336 Eh/α   predicted    -0.6920592E-05 ( -56.08%)
   displ. norm   :     0.1571366 α      lambda       -0.2027469E-04
   maximum displ.:     0.0911005 α      in ANC's #10, #7, #8, ...

........................................................................
.............................. CYCLE   78 ..............................
........................................................................
   1    -10.5954210 -0.105954E+02  0.179E-01    0.87       0.0  T
   2    -10.5954156  0.535384E-05  0.110E-01    0.86       1.0  T
   3    -10.5941954  0.122025E-02  0.227E-01    0.89       1.0  T
   4    -10.5953515 -0.115615E-02  0.498E-02    0.87       1.0  T
   5    -10.5954121 -0.605625E-04  0.195E-02    0.87       1.6  T
   6    -10.5954203 -0.814321E-05  0.115E-02    0.87       2.7  T
   7    -10.5954179  0.231819E-05  0.116E-02    0.87       2.7  T
   8    -10.5954226 -0.464841E-05  0.248E-03    0.87      12.8  T
   9    -10.5954226 -0.156347E-08  0.141E-03    0.87      22.5  T
  10    -10.5954226 -0.658769E-08  0.971E-04    0.87      32.6  T
  11    -10.5954226 -0.212119E-07  0.164E-04    0.87     192.6  T
     SCC iter.                  ...        0 min,  0.002 sec
     gradient                   ...        0 min,  0.000 sec
 * total energy  :   -10.3664809 Eh     change       -0.1542085E-04 Eh
   gradient norm :     0.0010224 Eh/α   predicted    -0.1024847E-04 ( -33.54%)
   displ. norm   :     0.0504305 α      lambda       -0.6164358E-05
   maximum displ.:     0.0294487 α      in ANC's #7, #10, #12, ...

........................................................................
.............................. CYCLE   79 ..............................
........................................................................
   1    -10.5957414 -0.105957E+02  0.101E-01    0.87       0.0  T
   2    -10.5957391  0.230938E-05  0.658E-02    0.87       1.0  T
   3    -10.5951458  0.593259E-03  0.161E-01    0.85       1.0  T
   4    -10.5957218 -0.575992E-03  0.251E-02    0.87       1.3  T
   5    -10.5957375 -0.156841E-04  0.135E-02    0.87       2.3  T
   6    -10.5957412 -0.366800E-05  0.814E-03    0.87       3.9  T
   7    -10.5957419 -0.736917E-06  0.251E-03    0.87      12.6  T
   8    -10.5957417  0.176101E-06  0.299E-03    0.87      10.6  T
   9    -10.5957420 -0.278141E-06  0.487E-04    0.87      65.0  T
  10    -10.5957420 -0.347370E-08  0.229E-04    0.87     138.3  T
     SCC iter.                  ...        0 min,  0.002 sec
     gradient                   ...        0 min,  0.001 sec
 * total energy  :   -10.3664840 Eh     change       -0.3137824E-05 Eh
   gradient norm :     0.0007639 Eh/α   predicted    -0.3087100E-05 (  -1.62%)
   displ. norm   :     0.0207332 α      lambda       -0.3098459E-05
   maximum displ.:     0.0146931 α      in ANC's #8, #9, #5, ...

   *** GEOMETRY OPTIMIZATION CONVERGED AFTER 79 ITERATIONS ***

------------------------------------------------------------------------
 total energy gain   :        -0.7568585 Eh     -474.9359 kcal/mol
 total RMSD          :         2.7743808 a0        1.4681 Å
 total power (kW/mol):       -25.1535653 (step)-6643.8110 (real)
------------------------------------------------------------------------

 ANCopt (total)                0 d,  0 h,  0 min,  0.299 sec
 optimizer setup                ...        0 min,  0.000 sec (  0.008%)
 model hessian                  ...        0 min,  0.000 sec (  0.140%)
 ANC generation                 ...        0 min,  0.000 sec (  0.075%)
 coordinate transformation      ...        0 min,  0.000 sec (  0.065%)
 single point calculation       ...        0 min,  0.291 sec ( 97.363%)
 optimization log               ...        0 min,  0.002 sec (  0.711%)
 hessian update                 ...        0 min,  0.002 sec (  0.714%)
 rational function              ...        0 min,  0.001 sec (  0.479%)

================
 final structure:
================
10
 xtb: 6.5.1 (conda-forge)
Be          -0.23060454163230        0.47931187793565       -1.51642196259441
B            0.34083659323721        0.41628562258417        0.04059778617621
B            0.86026420536431        0.35356056836694        1.44244885606300
B            1.38889479864001        0.28533316314505        2.87085280318691
C            2.32742476800310        0.17564960108803        5.40647911074702
C            1.87535406867773        0.22993628564823        4.17451560732960
H            2.41024039351523       -0.75391282658105        5.96574708521641
H            2.66564933654891        1.05528460617533        5.94951821830457
H            0.01968305764987        0.44410516387958        6.35950348007084
H           -0.56974268002131        0.50475593774050        6.87175901549827

 Bond Distances (Angstroems)
 ---------------------------
Be1-B2=1.6598        B2-Be1=1.6598        B2-B3=1.4963         B3-B2=1.4963         B3-B4=1.5246         B4-B3=1.5246         
B4-C6=1.3926         C5-C6=1.3134         C5-H7=1.0880         C5-H8=1.0877         C6-B4=1.3926         C6-C5=1.3134         
H7-C5=1.0880         H8-C5=1.0877         H9-H10=0.7833        H10-H9=0.7833        
 H  H  Rav=0.7833 sigma=0.0000  Rmin=0.7833  Rmax=0.7833     1
 B  Be Rav=1.6598 sigma=0.0000  Rmin=1.6598  Rmax=1.6598     1
 B  B  Rav=1.5105 sigma=0.0142  Rmin=1.4963  Rmax=1.5246     2
 C  H  Rav=1.0878 sigma=0.0002  Rmin=1.0877  Rmax=1.0880     2
 C  B  Rav=1.3926 sigma=0.0000  Rmin=1.3926  Rmax=1.3926     1
 C  C  Rav=1.3134 sigma=0.0000  Rmin=1.3134  Rmax=1.3134     1

 selected bond angles (degree)
 --------------------
B3-B2-Be1=179.71               B4-B3-B2=179.84                C6-B4-B3=179.68                H7-C5-C6=122.93                
H8-C5-C6=122.81                H8-C5-H7=114.25                C5-C6-B4=179.68                

 selected dihedral angles (degree)
 ---------------------------------
B4-B3-B2-Be1=314.05           C6-B4-B3-B2=159.46            C5-C6-B4-B3=134.32            B4-C6-C5-H7= 66.86            
B4-C6-C5-H8=245.88            

 CMA Distance (Angstroems)
 ---------------------------
R(CMA):  4.8904
           -------------------------------------------------
          |                Final Singlepoint                |
           -------------------------------------------------

          ...................................................
          :                      SETUP                      :
          :.................................................:
          :  # basis functions                  28          :
          :  # atomic orbitals                  28          :
          :  # shells                           16          :
          :  # electrons                        23          :
          :  max. iterations                   250          :
          :  Hamiltonian                  GFN2-xTB          :
          :  restarted?                      false          :
          :  GBSA solvation                  false          :
          :  PC potential                    false          :
          :  electronic temp.          300.0000000     K    :
          :  accuracy                    1.0000000          :
          :  -> integral cutoff          0.2500000E+02      :
          :  -> integral neglect         0.1000000E-07      :
          :  -> SCF convergence          0.1000000E-05 Eh   :
          :  -> wf. convergence          0.1000000E-03 e    :
          :  Broyden damping             0.4000000          :
          ...................................................

 iter      E             dE          RMSdq      gap      omega  full diag
   1    -10.5957420 -0.105957E+02  0.846E-05    0.87       0.0  T
   2    -10.5957420  0.659330E-10  0.814E-05    0.87     388.4  T
   3    -10.5957420  0.100115E-09  0.101E-04    0.87     313.2  T

   *** convergence criteria satisfied after 3 iterations ***

         #    Occupation            Energy/Eh            Energy/eV
      -------------------------------------------------------------
         1        2.0000           -0.5341948             -14.5362
       ...           ...                  ...                  ...
         6        2.0000           -0.3815785             -10.3833
         7        2.0000           -0.3449827              -9.3875
         8        2.0000           -0.3407482              -9.2722
         9        2.0000           -0.2935878              -7.9889
        10        2.0000           -0.2781131              -7.5678
        11        1.9996           -0.2564287              -6.9778
        12        1.0004           -0.2415202              -6.5721 (HOMO)
        13                         -0.2096825              -5.7057 (LUMO)
        14                         -0.1834849              -4.9929
        15                         -0.1608448              -4.3768
        16                         -0.1384170              -3.7665
        17                         -0.0618298              -1.6825
       ...                                ...                  ...
        28                          1.3526503              36.8075
      -------------------------------------------------------------
                  HL-Gap            0.0318378 Eh            0.8663 eV
             Fermi-level           -0.2372879 Eh           -6.4569 eV

 SCC (total)                   0 d,  0 h,  0 min,  0.002 sec
 SCC setup                      ...        0 min,  0.000 sec (  3.328%)
 Dispersion                     ...        0 min,  0.000 sec (  7.733%)
 classical contributions        ...        0 min,  0.000 sec (  6.323%)
 integral evaluation            ...        0 min,  0.000 sec ( 10.233%)
 iterations                     ...        0 min,  0.001 sec ( 39.025%)
 molecular gradient             ...        0 min,  0.001 sec ( 28.335%)
 printout                       ...        0 min,  0.000 sec (  4.207%)

         :::::::::::::::::::::::::::::::::::::::::::::::::::::
         ::                     SUMMARY                     ::
         :::::::::::::::::::::::::::::::::::::::::::::::::::::
         :: total energy             -10.366484048919 Eh    ::
         :: gradient norm              0.000762743245 Eh/a0 ::
         :: HOMO-LUMO gap              0.866349339188 eV    ::
         ::.................................................::
         :: SCC energy               -10.595742007126 Eh    ::
         :: -> isotropic ES            0.018580339750 Eh    ::
         :: -> anisotropic ES          0.012142023434 Eh    ::
         :: -> anisotropic XC         -0.011255796132 Eh    ::
         :: -> dispersion             -0.005361871678 Eh    ::
         :: repulsion energy           0.229287443246 Eh    ::
         :: add. restraining           0.000000000000 Eh    ::
         :: total charge               0.000000000000 e     ::
         :::::::::::::::::::::::::::::::::::::::::::::::::::::

           -------------------------------------------------
          |                Property Printout                |
           -------------------------------------------------

    * Orbital Energies and Occupations

         #    Occupation            Energy/Eh            Energy/eV
      -------------------------------------------------------------
         1        2.0000           -0.5341948             -14.5362
         2        2.0000           -0.4679603             -12.7338
         3        2.0000           -0.4351476             -11.8410
         4        2.0000           -0.4262340             -11.5984
         5        2.0000           -0.3962921             -10.7837
         6        2.0000           -0.3815785             -10.3833
         7        2.0000           -0.3449827              -9.3875
         8        2.0000           -0.3407482              -9.2722
         9        2.0000           -0.2935878              -7.9889
        10        2.0000           -0.2781131              -7.5678
        11        1.9996           -0.2564287              -6.9778
        12        1.0004           -0.2415202              -6.5721 (HOMO)
        13                         -0.2096825              -5.7057 (LUMO)
        14                         -0.1834849              -4.9929
        15                         -0.1608448              -4.3768
        16                         -0.1384170              -3.7665
        17                         -0.0618298              -1.6825
        18                         -0.0414860              -1.1289
        19                          0.0595020               1.6191
        20                          0.0711873               1.9371
        21                          0.1569138               4.2698
        22                          0.1958380               5.3290
        23                          0.3522129               9.5842
       ...                                ...                  ...
        28                          1.3526503              36.8075
      -------------------------------------------------------------
                  HL-Gap            0.0318378 Eh            0.8663 eV
             Fermi-level           -0.2372879 Eh           -6.4569 eV

     #   Z          covCN         q      C6AA      α(0)
     1   4 Be       0.912     0.324    69.086    24.929
     2   5 B        1.890    -0.128    49.417    14.801
     3   5 B        1.957    -0.008    44.415    14.016
     4   5 B        1.885     0.063    42.171    13.673
     5   6 C        2.830    -0.078    29.944     8.967
     6   6 C        1.888    -0.154    35.490     9.622
     7   1 H        0.925    -0.005     3.153     2.777
     8   1 H        0.925    -0.006     3.155     2.778
     9   1 H        0.793     0.016     2.853     2.656
    10   1 H        0.793    -0.025     3.604     2.985

 Mol. C6AA /au·bohr⁶  :       2111.370310
 Mol. C8AA /au·bohr⁸  :      68934.400119
 Mol. α(0) /au        :         97.202221


Wiberg/Mayer (AO) data.
largest (>0.10) Wiberg bond orders for each atom

 ---------------------------------------------------------------------------
     #   Z sym  total        # sym  WBO       # sym  WBO       # sym  WBO
 ---------------------------------------------------------------------------
     1   4 Be   1.734 --     2 B    1.353     3 B    0.305
     2   5 B    3.193 --     3 B    1.604     1 Be   1.353     4 B    0.230
     3   5 B    3.419 --     2 B    1.604     4 B    1.342     1 Be   0.305
                             6 C    0.112
     4   5 B    3.483 --     6 C    1.729     3 B    1.342     2 B    0.230
     5   6 C    3.886 --     6 C    1.888     8 H    0.949     7 H    0.949
     6   6 C    3.747 --     5 C    1.888     4 B    1.729     3 B    0.112
     7   1 H    0.988 --     5 C    0.949
     8   1 H    0.988 --     5 C    0.949
     9   1 H    1.000 --    10 H    0.987
    10   1 H    0.998 --     9 H    0.987
 ---------------------------------------------------------------------------

Topologies differ in total number of bonds
Writing topology from bond orders to xtbtopo.mol

molecular dipole:
                 x           y           z       tot (Debye)
 q only:       -0.984       0.116      -2.883
   full:       -1.315       0.150      -3.796      10.218
molecular quadrupole (traceless):
                xx          xy          yy          xz          yz          zz
 q only:        4.910      -0.685      10.038     -10.166      -2.482     -14.948
  q+dip:       -3.010      -1.428      -0.799      -0.335      -4.824       3.809
   full:       -0.350      -1.278       3.269      -4.042      -4.374      -2.919

           -------------------------------------------------
          |                Geometry Summary                 |
           -------------------------------------------------

      molecular mass/u    :       69.4985020
   center of mass at/Å    :        1.1649533       0.3145214       2.5011313
  moments of inertia/u·Å² :        0.1730903E+02   0.4616204E+03   0.4755665E+03
rotational constants/cm⁻¹ :        0.9739211E+00   0.3651838E-01   0.3544748E-01

 * 8 selected distances

     #   Z          #   Z                                           value/Å
     1   4 Be       2   5 B                                       1.6597675 (max)
     2   5 B        3   5 B                                       1.4963042
     3   5 B        4   5 B                                       1.5246126
     4   5 B        6   6 C                                       1.3925690
     5   6 C        6   6 C                                       1.3134113
     5   6 C        7   1 H                                       1.0879916
     5   6 C        8   1 H                                       1.0876789
     9   1 H       10   1 H                                       0.7832669 (min)

 * 6 distinct bonds (by element types)

   Z      Z             #   av. dist./Å        max./Å        min./Å
   1 H    1 H           1     0.7832669     0.7832669     0.7832669
   4 Be   5 B           1     1.6597675     1.6597675     1.6597675
   5 B    5 B           2     1.5104584     1.5246126     1.4963042
   1 H    6 C           2     1.0878352     1.0879916     1.0876789
Note: The following floating-point exceptions are signalling: IEEE_UNDERFLOW_FLAG
normal termination of xtb
   5 B    6 C           1     1.3925690     1.3925690     1.3925690
   6 C    6 C           1     1.3134113     1.3134113     1.3134113


optimized geometry written to: xtbopt.xyz


           -------------------------------------------------
          | TOTAL ENERGY              -10.366484048919 Eh   |
          | GRADIENT NORM               0.000762743245 Eh/α |
          | HOMO-LUMO GAP               0.866349339188 eV   |
           -------------------------------------------------
########################################################################
[WARNING] Runtime exception occurred
-3- restart_readRestart: Dimension missmatch in restart file.
-2- restart_readRestart: Multiplicity missmatch in restart file.
-1- restart_readRestart: Number of electron missmatch in restart file.
########################################################################

------------------------------------------------------------------------
 * finished run on 2025/06/07 at 03:27:43.511     
------------------------------------------------------------------------
 total:
 * wall-time:     0 d,  0 h,  0 min,  0.323 sec
 *  cpu-time:     0 d,  0 h,  0 min,  4.592 sec
 * ratio c/w:    14.204 speedup
 SCF:
 * wall-time:     0 d,  0 h,  0 min,  0.017 sec
 *  cpu-time:     0 d,  0 h,  0 min,  0.237 sec
 * ratio c/w:    13.691 speedup
 ANC optimizer:
 * wall-time:     0 d,  0 h,  0 min,  0.302 sec
 *  cpu-time:     0 d,  0 h,  0 min,  4.315 sec
 * ratio c/w:    14.271 speedup

