      -----------------------------------------------------------      
     |                   =====================                   |     
     |                           x T B                           |     
     |                   =====================                   |     
     |                         S. Grimme                         |     
     |          Mulliken Center for Theoretical Chemistry        |     
     |                    University of Bonn                     |     
      -----------------------------------------------------------      

   * xtb version 6.5.1 (conda-forge) compiled by 'runner@Mac-1657629245115.local' on 2022-07-12

   xtb is free software: you can redistribute it and/or modify it under
   the terms of the GNU Lesser General Public License as published by
   the Free Software Foundation, either version 3 of the License, or
   (at your option) any later version.
   
   xtb is distributed in the hope that it will be useful,
   but WITHOUT ANY WARRANTY; without even the implied warranty of
   MERCHANTABILITY or FITNESS FOR A PARTICULAR PURPOSE.  See the
   GNU Lesser General Public License for more details.
   
   Cite this work as:
   * C. Bannwarth, E. Caldeweyher, S. Ehlert, A. Hansen, P. Pracht,
     J. Seibert, S. Spicher, S. Grimme, WIREs Comput. Mol. Sci., 2020, 11,
     e01493. DOI: 10.1002/wcms.1493
   
   for GFN2-xTB:
   * C. Bannwarth, S. Ehlert and S. Grimme., J. Chem. Theory Comput., 2019,
     15, 1652-1671. DOI: 10.1021/acs.jctc.8b01176
   for GFN1-xTB:
   * S. Grimme, C. Bannwarth, P. Shushkov, J. Chem. Theory Comput., 2017,
     13, 1989-2009. DOI: 10.1021/acs.jctc.7b00118
   for GFN0-xTB:
   * P. Pracht, E. Caldeweyher, S. Ehlert, S. Grimme, ChemRxiv, 2019, preprint.
     DOI: 10.26434/chemrxiv.8326202.v1
   for GFN-FF:
   * S. Spicher and S. Grimme, Angew. Chem. Int. Ed., 2020, 59, 15665-15673.
     DOI: 10.1002/anie.202004239
   
   for ALPB and GBSA implicit solvation:
   * S. Ehlert, M. Stahn, S. Spicher, S. Grimme, J. Chem. Theory Comput.,
     2021, 17, 4250-4261. DOI: 10.1021/acs.jctc.1c00471
   
   for DFT-D4:
   * E. Caldeweyher, C. Bannwarth and S. Grimme, J. Chem. Phys., 2017,
     147, 034112. DOI: 10.1063/1.4993215
   * E. Caldeweyher, S. Ehlert, A. Hansen, H. Neugebauer, S. Spicher,
     C. Bannwarth and S. Grimme, J. Chem. Phys., 2019, 150, 154122.
     DOI: 10.1063/1.5090222
   * E. Caldeweyher, J.-M. Mewes, S. Ehlert and S. Grimme, Phys. Chem. Chem. Phys.
     2020, 22, 8499-8512. DOI: 10.1039/D0CP00502A
   
   for sTDA-xTB:
   * S. Grimme and C. Bannwarth, J. Chem. Phys., 2016, 145, 054103.
     DOI: 10.1063/1.4959605
   
   in the mass-spec context:
   * V. Asgeirsson, C. Bauer and S. Grimme, Chem. Sci., 2017, 8, 4879.
     DOI: 10.1039/c7sc00601b
   * J. Koopman and S. Grimme, ACS Omega 2019, 4, 12, 15120-15133.
     DOI: 10.1021/acsomega.9b02011
   
   for metadynamics refer to:
   * S. Grimme, J. Chem. Theory Comput., 2019, 155, 2847-2862
     DOI: 10.1021/acs.jctc.9b00143
   
   for SPH calculations refer to:
   * S. Spicher and S. Grimme, J. Chem. Theory Comput., 2021, 17, 1701-1714
     DOI: 10.1021/acs.jctc.0c01306
   
   with help from (in alphabetical order)
   P. Atkinson, C. Bannwarth, F. Bohle, G. Brandenburg, E. Caldeweyher
   M. Checinski, S. Dohm, S. Ehlert, S. Ehrlich, I. Gerasimov, C. Hölzer
   A. Katbashev, J. Koopman, C. Lavigne, S. Lehtola, F. März, M. Müller,
   F. Musil, H. Neugebauer, J. Pisarek, C. Plett, P. Pracht, F. Pultar,
   J. Seibert, P. Shushkov, S. Spicher, M. Stahn, M. Steiner, T. Strunk,
   J. Stückrath, T. Rose, and J. Unsleber
   
 * started run on 2025/06/07 at 03:27:47.422     

           -------------------------------------------------
          |                Calculation Setup                |
           -------------------------------------------------

          program call               : xtb BBe2C4H5.xyz --gfn 2 --opt
          coordinate file            : BBe2C4H5.xyz
          omp threads                :                    16

   ID    Z sym.   atoms
    1    4 Be     1, 2
    2    5 B      3
    3    6 C      4-7
    4    1 H      8-12

molecular fragmentation (1/2 indicates fragments):
122222222222
# atoms in fragment 1/2:     1    11
 fragment masses (1/2) :        9.01       72.91
CMA distance (Bohr)    :  11.141
constraining FC (au)   :  0.0500

           -------------------------------------------------
          |                 G F N 2 - x T B                 |
           -------------------------------------------------

        Reference                      10.1021/acs.jctc.8b01176
      * Hamiltonian:
        H0-scaling (s, p, d)           1.850000    2.230000    2.230000
        zeta-weighting                 0.500000
      * Dispersion:
        s8                             2.700000
        a1                             0.520000
        a2                             5.000000
        s9                             5.000000
      * Repulsion:
        kExp                           1.500000    1.000000
        rExp                           1.000000
      * Coulomb:
        alpha                          2.000000
        third order                    shell-resolved
        anisotropic                    true
        a3                             3.000000
        a5                             4.000000
        cn-shift                       1.200000
        cn-exp                         4.000000
        max-rad                        5.000000


          ...................................................
          :                      SETUP                      :
          :.................................................:
          :  # basis functions                  33          :
          :  # atomic orbitals                  33          :
          :  # shells                           19          :
          :  # electrons                        28          :
          :  max. iterations                   250          :
          :  Hamiltonian                  GFN2-xTB          :
          :  restarted?                      false          :
          :  GBSA solvation                  false          :
          :  PC potential                    false          :
          :  electronic temp.          300.0000000     K    :
          :  accuracy                    1.0000000          :
          :  -> integral cutoff          0.2500000E+02      :
          :  -> integral neglect         0.1000000E-07      :
          :  -> SCF convergence          0.1000000E-05 Eh   :
          :  -> wf. convergence          0.1000000E-03 e    :
          :  Broyden damping             0.4000000          :
          ...................................................

 iter      E             dE          RMSdq      gap      omega  full diag
   1     27.9962176  0.279962E+02  0.296E+01    0.86       0.0  T
   2     -1.7162546 -0.297125E+02  0.201E+01    0.12       1.0  T
   3     -4.0921344 -0.237588E+01  0.214E+01    0.74       1.0  T
   4     -5.4609647 -0.136883E+01  0.173E+01    0.44       1.0  T
   5     -6.4982459 -0.103728E+01  0.144E+01    0.51       1.0  T
   6     -7.9386663 -0.144042E+01  0.107E+01    0.62       1.0  T
   7     -7.2855672  0.653099E+00  0.122E+01    0.60       1.0  T
   8     -5.7656171  0.151995E+01  0.153E+01    0.65       1.0  T
   9    -11.9541158 -0.618850E+01  0.203E+01    0.27       1.0  T
  10     -3.7672156  0.818690E+01  0.238E+01    0.14       1.0  T
  11      4.6400559  0.840727E+01  0.235E+01    0.15       1.0  T
  12      1.6533318 -0.298672E+01  0.171E+01    0.38       1.0  T
  13      9.9331789  0.827985E+01  0.233E+01    0.19       1.0  T
  14    -11.5879379 -0.215211E+02  0.180E+01    0.41       1.0  T
  15     -8.6473558  0.294058E+01  0.944E+00    0.53       1.0  T
  16     -8.7774375 -0.130082E+00  0.995E+00    0.58       1.0  T
  17     -8.1820194  0.595418E+00  0.970E+00    0.61       1.0  T
  18     -8.9843715 -0.802352E+00  0.111E+01    0.54       1.0  T
  19     -8.9728814  0.114900E-01  0.111E+01    0.54       1.0  T
  20     -8.6141721  0.358709E+00  0.102E+01    0.49       1.0  T
  21     -8.5909809  0.231912E-01  0.103E+01    0.49       1.0  T
  22     -8.5884544  0.252643E-02  0.106E+01    0.49       1.0  T
  23     -8.5414158  0.470387E-01  0.110E+01    0.49       1.0  T
  24     -8.4685412  0.728746E-01  0.115E+01    0.50       1.0  T
  25     -8.4604973  0.804382E-02  0.116E+01    0.50       1.0  T
  26     -8.5154552 -0.549579E-01  0.113E+01    0.49       1.0  T
  27     -8.5635941 -0.481389E-01  0.110E+01    0.49       1.0  T
  28    -11.3842351 -0.282064E+01  0.114E+01    0.26       1.0  T
  29    -11.3863240 -0.208892E-02  0.113E+01    0.26       1.0  T
  30    -11.3963690 -0.100450E-01  0.114E+01    0.26       1.0  T
  31    -11.4032499 -0.688092E-02  0.112E+01    0.26       1.0  T
  32    -11.4109102 -0.766028E-02  0.112E+01    0.26       1.0  T
  33    -11.4778841 -0.669739E-01  0.112E+01    0.27       1.0  T
  34    -11.4858274 -0.794331E-02  0.112E+01    0.27       1.0  T
  35    -11.4847737  0.105372E-02  0.112E+01    0.27       1.0  T
  36    -11.6212554 -0.136482E+00  0.111E+01    0.29       1.0  T
  37    -11.7550073 -0.133752E+00  0.122E+01    0.26       1.0  T
  38    -11.7581191 -0.311182E-02  0.121E+01    0.26       1.0  T
  39      6.3603334  0.181185E+02  0.154E+01    0.25       1.0  T
  40      6.6124238  0.252090E+00  0.155E+01    0.24       1.0  T
  41      6.7677930  0.155369E+00  0.156E+01    0.24       1.0  T
  42      8.7692613  0.200147E+01  0.168E+01    0.21       1.0  T
  43      8.5680929 -0.201168E+00  0.168E+01    0.20       1.0  T
  44      8.3161417 -0.251951E+00  0.167E+01    0.21       1.0  T
  45      8.1584489 -0.157693E+00  0.166E+01    0.21       1.0  T
  46      8.6657288  0.507280E+00  0.169E+01    0.20       1.0  T
  47      7.5837714 -0.108196E+01  0.163E+01    0.22       1.0  T
  48      6.4853992 -0.109837E+01  0.157E+01    0.22       1.0  T
  49      7.2720894  0.786690E+00  0.162E+01    0.22       1.0  T
  50      4.9765178 -0.229557E+01  0.151E+01    0.22       1.0  T
  51      0.6479373 -0.432858E+01  0.140E+01    0.08       1.0  T
  52      2.1066467  0.145871E+01  0.142E+01    0.11       1.0  T
  53     -1.3294337 -0.343608E+01  0.147E+01    0.05       1.0  T
  54      1.7039443  0.303338E+01  0.141E+01    0.10       1.0  T
  55     -4.0976791 -0.580162E+01  0.189E+01    0.04       1.0  T
  56     -3.8526114  0.245068E+00  0.188E+01    0.04       1.0  T
  57    -11.9852087 -0.813260E+01  0.120E+01    0.28       1.0  T
  58    -11.7865745  0.198634E+00  0.108E+01    0.29       1.0  T
  59    -11.7864751  0.993443E-04  0.108E+01    0.28       1.0  T
  60    -11.7818790  0.459618E-02  0.108E+01    0.28       1.0  T
  61    -11.8059294 -0.240504E-01  0.109E+01    0.26       1.0  T
  62    -11.8000837  0.584567E-02  0.110E+01    0.27       1.0  T
  63      4.0096337  0.158097E+02  0.150E+01    0.18       1.0  T
  64     -4.1955177 -0.820515E+01  0.191E+01    0.03       1.0  T
  65      7.5487814  0.117443E+02  0.168E+01    0.22       1.0  T
  66    -11.9127841 -0.194616E+02  0.131E+01    0.29       1.0  T
  67    -11.9099337  0.285041E-02  0.135E+01    0.24       1.0  T
  68    -11.9102941 -0.360394E-03  0.135E+01    0.24       1.0  T
  69    -11.9225221 -0.122280E-01  0.149E+01    0.17       1.0  T
  70    -11.8436446  0.788774E-01  0.170E+01    0.13       1.0  T
  71    -11.0567725  0.786872E+00  0.243E+01    0.15       1.0  T
  72     -9.3024572  0.175432E+01  0.231E+01    0.06       1.0  T
  73     -8.9840740  0.318383E+00  0.226E+01    0.05       1.0  T
  74     -8.2965330  0.687541E+00  0.216E+01    0.04       1.0  T
  75     -6.4563820  0.184015E+01  0.198E+01    0.02       1.0  T
  76     -4.8530654  0.160332E+01  0.188E+01    0.03       1.0  T
  77     -8.6029855 -0.374992E+01  0.216E+01    0.04       1.0  T
  78    -11.8456782 -0.324269E+01  0.130E+01    0.25       1.0  T
  79    -11.9188787 -0.732005E-01  0.141E+01    0.20       1.0  T
  80    -11.8958903  0.229884E-01  0.151E+01    0.16       1.0  T
  81    -11.0310159  0.864874E+00  0.249E+01    0.16       1.0  T
  82    -10.7586660  0.272350E+00  0.254E+01    0.16       1.0  T
  83     -9.1528870  0.160578E+01  0.232E+01    0.06       1.0  T
  84    -10.1635642 -0.101068E+01  0.245E+01    0.10       1.0  T
  85     -6.4279178  0.373565E+01  0.202E+01    0.03       1.0  T
  86     -6.6753342 -0.247416E+00  0.205E+01    0.03       1.0  T
  87     -3.6993773  0.297596E+01  0.184E+01    0.04       1.0  T
  88     -2.1596914  0.153969E+01  0.156E+01    0.05       1.0  T
  89     -5.1336186 -0.297393E+01  0.182E+01    0.03       1.0  T
  90    -10.3548817 -0.522126E+01  0.227E+01    0.10       1.0  T
  91      7.6164102  0.179713E+02  0.164E+01    0.19       1.0  T
  92      8.5597773  0.943367E+00  0.174E+01    0.19       1.0  T
  93      8.3183675 -0.241410E+00  0.173E+01    0.19       1.0  T
  94      7.6519179 -0.666450E+00  0.169E+01    0.18       1.0  T
  95      8.8509776  0.119906E+01  0.175E+01    0.19       1.0  T
  96      8.8269963 -0.239814E-01  0.175E+01    0.19       1.0  T
  97      8.7234627 -0.103534E+00  0.175E+01    0.19       1.0  T
  98      7.5942740 -0.112919E+01  0.169E+01    0.19       1.0  T
  99      7.5048314 -0.894427E-01  0.168E+01    0.19       1.0  T
 100      3.6995287 -0.380530E+01  0.147E+01    0.13       1.0  T
 101     -1.3853665 -0.508490E+01  0.146E+01    0.07       1.0  T
 102     -3.1403599 -0.175499E+01  0.171E+01    0.05       1.0  T
 103    -10.3091851 -0.716883E+01  0.231E+01    0.10       1.0  T
 104      6.3782938  0.166875E+02  0.159E+01    0.17       1.0  T
 105    -11.4037786 -0.177821E+02  0.199E+01    0.10       1.0  T
 106      9.6476939  0.210515E+02  0.182E+01    0.19       1.0  T
 107     -7.2987729 -0.169465E+02  0.204E+01    0.03       1.0  T
 108      1.4699902  0.876876E+01  0.143E+01    0.13       1.0  T
 109     -2.3892180 -0.385921E+01  0.145E+01    0.06       1.0  T
 110      0.2184186  0.260764E+01  0.144E+01    0.13       1.0  T
 111      5.3357358  0.511732E+01  0.150E+01    0.17       1.0  T
 112      3.2577239 -0.207801E+01  0.144E+01    0.17       1.0  T
 113      2.9108694 -0.346854E+00  0.145E+01    0.18       1.0  T
 114      2.7239439 -0.186926E+00  0.145E+01    0.19       1.0  T
 115      3.3975829  0.673639E+00  0.145E+01    0.17       1.0  T
 116      1.5222958 -0.187529E+01  0.146E+01    0.19       1.0  T
 117      1.6892310  0.166935E+00  0.146E+01    0.19       1.0  T
 118      5.9711206  0.428189E+01  0.160E+01    0.14       1.0  T
 119      7.3425243  0.137140E+01  0.172E+01    0.16       1.0  T
 120      7.2781331 -0.643912E-01  0.171E+01    0.16       1.0  T
 121      7.0365653 -0.241568E+00  0.169E+01    0.15       1.0  T
 122      7.1322723  0.957070E-01  0.170E+01    0.15       1.0  T
 123      7.1753495  0.430772E-01  0.169E+01    0.15       1.0  T
 124      7.1587869 -0.165626E-01  0.169E+01    0.15       1.0  T
 125      7.3129713  0.154184E+00  0.171E+01    0.15       1.0  T
 126      7.4325900  0.119619E+00  0.172E+01    0.16       1.0  T
 127      5.9841740 -0.144842E+01  0.160E+01    0.14       1.0  T
 128      6.7176338  0.733460E+00  0.166E+01    0.15       1.0  T
 129      6.4915643 -0.226070E+00  0.164E+01    0.14       1.0  T
 130      6.6436022  0.152038E+00  0.165E+01    0.15       1.0  T
 131      4.5144666 -0.212914E+01  0.152E+01    0.13       1.0  T
 132      5.9825594  0.146809E+01  0.161E+01    0.14       1.0  T
 133      1.0416653 -0.494089E+01  0.147E+01    0.14       1.0  T
 134      3.4216097  0.237994E+01  0.147E+01    0.14       1.0  T
 135      5.5105738  0.208896E+01  0.161E+01    0.14       1.0  T
 136     -1.8770012 -0.738758E+01  0.165E+01    0.11       1.0  T
 137      0.6165385  0.249354E+01  0.148E+01    0.14       1.0  T
 138      4.1385556  0.352202E+01  0.154E+01    0.13       1.0  T
 139     -2.5089552 -0.664751E+01  0.174E+01    0.11       1.0  T
 140      0.5596222  0.306858E+01  0.150E+01    0.14       1.0  T
 141      0.1218282 -0.437794E+00  0.153E+01    0.13       1.0  T
 142      0.0714519 -0.503763E-01  0.153E+01    0.13       1.0  T
 143      4.4227703  0.435132E+01  0.156E+01    0.13       1.0  T
 144     -1.4057398 -0.582851E+01  0.164E+01    0.13       1.0  T
 145      3.2263699  0.463211E+01  0.152E+01    0.12       1.0  T
 146     -1.2985066 -0.452488E+01  0.163E+01    0.14       1.0  T
 147      0.8114108  0.210992E+01  0.152E+01    0.14       1.0  T
 148     -0.5744606 -0.138587E+01  0.157E+01    0.15       1.0  T
 149     -0.1871251  0.387336E+00  0.155E+01    0.15       1.0  T
 150     -0.3204279 -0.133303E+00  0.155E+01    0.15       1.0  T
 151     -0.1609128  0.159515E+00  0.155E+01    0.15       1.0  T
 152     -0.0983404  0.625724E-01  0.154E+01    0.14       1.0  T
 153      5.0344823  0.513282E+01  0.161E+01    0.14       1.0  T
 154      2.9857060 -0.204878E+01  0.154E+01    0.12       1.0  T
 155      2.6437391 -0.341967E+00  0.153E+01    0.12       1.0  T
 156      1.1248242 -0.151891E+01  0.150E+01    0.12       1.0  T
 157      1.3170766  0.192252E+00  0.149E+01    0.13       1.0  T
 158      6.7160204  0.539894E+01  0.177E+01    0.16       1.0  T
 159      7.8867373  0.117072E+01  0.188E+01    0.21       1.0  T
 160      7.9189194  0.321821E-01  0.188E+01    0.21       1.0  T
 161      7.7938455 -0.125074E+00  0.187E+01    0.20       1.0  T
 162      8.4481000  0.654254E+00  0.186E+01    0.19       1.0  T
 163      8.1751865 -0.272913E+00  0.182E+01    0.18       1.0  T
 164      7.8932560 -0.281930E+00  0.179E+01    0.18       1.0  T
 165      7.8880142 -0.524178E-02  0.179E+01    0.18       1.0  T
 166      7.9686786  0.806644E-01  0.180E+01    0.18       1.0  T
 167      7.7746761 -0.194002E+00  0.179E+01    0.18       1.0  T
 168      7.9693106  0.194634E+00  0.180E+01    0.18       1.0  T
 169      7.9843076  0.149971E-01  0.178E+01    0.18       1.0  T
 170      7.6077520 -0.376556E+00  0.175E+01    0.17       1.0  T
 171      7.1665779 -0.441174E+00  0.172E+01    0.17       1.0  T
 172      6.4591810 -0.707397E+00  0.167E+01    0.17       1.0  T
 173      5.5026669 -0.956514E+00  0.160E+01    0.17       1.0  T
 174      4.4831872 -0.101948E+01  0.153E+01    0.17       1.0  T
 175      4.0409162 -0.442271E+00  0.151E+01    0.18       1.0  T
 176      4.2913546  0.250438E+00  0.152E+01    0.18       1.0  T
 177      5.4459919  0.115464E+01  0.159E+01    0.17       1.0  T
 178      6.0594887  0.613497E+00  0.163E+01    0.17       1.0  T
 179      5.2485864 -0.810902E+00  0.158E+01    0.17       1.0  T
 180      2.4522437 -0.279634E+01  0.145E+01    0.16       1.0  T
 181     -2.9535426 -0.540579E+01  0.157E+01    0.05       1.0  T
 182    -10.7437097 -0.779017E+01  0.235E+01    0.11       1.0  T
 183    -12.1909452 -0.144724E+01  0.136E+01    0.19       1.0  T
 184      5.9697895  0.181607E+02  0.162E+01    0.21       1.0  T
 185      5.5059023 -0.463887E+00  0.166E+01    0.17       1.0  T
 186      5.5059617  0.594083E-04  0.163E+01    0.17       1.0  T
 187      1.8595595 -0.364640E+01  0.144E+01    0.12       1.0  T
 188     -3.9730004 -0.583256E+01  0.177E+01    0.03       1.0  T
 189    -12.0419636 -0.806896E+01  0.204E+01    0.12       1.0  T
 190      7.2780931  0.193201E+02  0.173E+01    0.19       1.0  T
 191     -5.3780901 -0.126562E+02  0.201E+01    0.03       1.0  T
 192      7.4273537  0.128054E+02  0.175E+01    0.18       1.0  T
 193     -5.0025875 -0.124299E+02  0.197E+01    0.03       1.0  T
 194      0.7753903  0.577798E+01  0.142E+01    0.11       1.0  T
 195     -1.3780417 -0.215343E+01  0.145E+01    0.06       1.0  T
 196     -1.1657660  0.212276E+00  0.141E+01    0.06       1.0  T
 197     -3.4768694 -0.231110E+01  0.167E+01    0.03       1.0  T
 198     -4.8432100 -0.136634E+01  0.196E+01    0.03       1.0  T
 199     -4.5872446  0.255965E+00  0.191E+01    0.03       1.0  T
 200     -3.8779140  0.709331E+00  0.175E+01    0.04       1.0  T
 201     -4.6074051 -0.729491E+00  0.192E+01    0.03       1.0  T
 202     -3.0885573  0.151885E+01  0.164E+01    0.05       1.0  T
 203     -0.0938489  0.299471E+01  0.141E+01    0.09       1.0  T
 204      4.4400820  0.453393E+01  0.153E+01    0.18       1.0  T
 205      7.3709866  0.293090E+01  0.174E+01    0.18       1.0  T
 206      6.6940614 -0.676925E+00  0.169E+01    0.18       1.0  T
 207      7.1418669  0.447805E+00  0.172E+01    0.18       1.0  T
 208      6.7794182 -0.362449E+00  0.172E+01    0.18       1.0  T
 209      7.1092920  0.329874E+00  0.177E+01    0.19       1.0  T
 210      6.3484106 -0.760881E+00  0.173E+01    0.19       1.0  T
 211      6.6722046  0.323794E+00  0.178E+01    0.19       1.0  T
 212      6.3035333 -0.368671E+00  0.177E+01    0.19       1.0  T
 213      6.7987380  0.495205E+00  0.182E+01    0.19       1.0  T
 214      6.8033690  0.463105E-02  0.182E+01    0.19       1.0  T
 215      7.1400055  0.336636E+00  0.184E+01    0.19       1.0  T
 216      7.1417739  0.176836E-02  0.184E+01    0.19       1.0  T
 217      7.2808172  0.139043E+00  0.185E+01    0.19       1.0  T
 218      6.6544761 -0.626341E+00  0.183E+01    0.18       1.0  T
 219      6.3256965 -0.328780E+00  0.180E+01    0.18       1.0  T
 220      0.7415444 -0.558415E+01  0.156E+01    0.09       1.0  T
 221     -6.2528645 -0.699441E+01  0.198E+01    0.03       1.0  T
 222    -11.1890428 -0.493618E+01  0.243E+01    0.14       1.0  T
 223    -11.5480793 -0.359037E+00  0.243E+01    0.20       1.0  T
 224    -11.7307939 -0.182715E+00  0.234E+01    0.20       1.0  T
 225      6.2706025  0.180014E+02  0.171E+01    0.18       1.0  T
 226    -12.3984915 -0.186691E+02  0.144E+01    0.27       1.0  T
 227    -11.6170229  0.781469E+00  0.229E+01    0.22       1.0  T
 228     -3.6354444  0.798158E+01  0.179E+01    0.11       1.0  T
 229    -12.4662091 -0.883076E+01  0.140E+01    0.26       1.0  T
 230      5.7109110  0.181771E+02  0.159E+01    0.17       1.0  T
 231    -12.2476973 -0.179586E+02  0.147E+01    0.26       1.0  T
 232    -12.2193622  0.283350E-01  0.140E+01    0.27       1.0  T
 233    -12.1969613  0.224009E-01  0.137E+01    0.30       1.0  T
 234    -12.2692595 -0.722982E-01  0.132E+01    0.31       1.0  T
 235    -12.2335313  0.357282E-01  0.133E+01    0.32       1.0  T
 236    -12.2131011  0.204302E-01  0.136E+01    0.33       1.0  T
 237    -12.2245696 -0.114685E-01  0.138E+01    0.32       1.0  T
 238    -12.2523222 -0.277526E-01  0.142E+01    0.29       1.0  T
 239    -12.2102631  0.420591E-01  0.148E+01    0.25       1.0  T
 240    -12.0495459  0.160717E+00  0.159E+01    0.21       1.0  T
 241    -11.6241430  0.425403E+00  0.184E+01    0.15       1.0  T
 242     -9.5508524  0.207329E+01  0.195E+01    0.07       1.0  T
 243    -11.8903814 -0.233953E+01  0.178E+01    0.19       1.0  T
 244    -10.7562449  0.113414E+01  0.206E+01    0.11       1.0  T
 245     -8.8615136  0.189473E+01  0.192E+01    0.04       1.0  T
 246    -11.1271772 -0.226566E+01  0.215E+01    0.14       1.0  T
 247     -5.7036058  0.542357E+01  0.184E+01    0.08       1.0  T
 248     -1.7945693  0.390904E+01  0.156E+01    0.15       1.0  T
 249     -3.0972802 -0.130271E+01  0.162E+01    0.18       1.0  T
 250     -2.2861106  0.811170E+00  0.155E+01    0.17       1.0  T

   *** convergence criteria cannot be satisfied within 250 iterations ***

         #    Occupation            Energy/Eh            Energy/eV
      -------------------------------------------------------------
         1        2.0000           -0.5544565             -15.0875
       ...           ...                  ...                  ...
         8        2.0000           -0.3698534             -10.0642
         9        2.0000           -0.3136878              -8.5359
        10        2.0000           -0.2987624              -8.1297
        11        2.0000           -0.2881547              -7.8411
        12        2.0000           -0.2855752              -7.7709
        13        1.9999           -0.2836740              -7.7192
        14        1.9330           -0.2774785              -7.5506 (HOMO)
        15        0.0671           -0.2710905              -7.3767 (LUMO)
        16                         -0.2558961              -6.9633
        17                         -0.2458549              -6.6901
        18                         -0.2362853              -6.4297
        19                         -0.2202662              -5.9937
       ...                                ...                  ...
        33                          0.6640281              18.0691
      -------------------------------------------------------------
                  HL-Gap            0.0063881 Eh            0.1738 eV
             Fermi-level           -0.2742836 Eh           -7.4636 eV
Note: The following floating-point exceptions are signalling: IEEE_UNDERFLOW_FLAG
ERROR STOP 

Error termination. Backtrace:
#0  0x101aac327
#1  0x101aad147
#2  0x101aae72b
#3  0x1015342e7
#4  0x100bf4ce7
#5  0x100bff3bf
abnormal termination of xtb

 SCC (total)                   0 d,  0 h,  0 min,  0.234 sec
 SCC setup                      ...        0 min,  0.000 sec (  0.031%)
 Dispersion                     ...        0 min,  0.000 sec (  0.044%)
 classical contributions        ...        0 min,  0.000 sec (  0.027%)
 integral evaluation            ...        0 min,  0.000 sec (  0.071%)
 iterations                     ...        0 min,  0.232 sec ( 99.522%)
 molecular gradient             ...        0 min,  0.001 sec (  0.250%)
 printout                       ...        0 min,  0.000 sec (  0.046%)

########################################################################
[ERROR] Program stopped due to fatal error
-5- Single point calculation terminated
-4- xtb_calculator_singlepoint: Electronic structure method terminated
-3- scf: Self consistent charge iterator did not converge
-2- restart_readRestart: Dimension missmatch in restart file.
-1- restart_readRestart: Number of electron missmatch in restart file.
########################################################################
