      -----------------------------------------------------------      
     |                   =====================                   |     
     |                           x T B                           |     
     |                   =====================                   |     
     |                         S. Grimme                         |     
     |          Mulliken Center for Theoretical Chemistry        |     
     |                    University of Bonn                     |     
      -----------------------------------------------------------      

   * xtb version 6.5.1 (conda-forge) compiled by 'runner@Mac-1657629245115.local' on 2022-07-12

   xtb is free software: you can redistribute it and/or modify it under
   the terms of the GNU Lesser General Public License as published by
   the Free Software Foundation, either version 3 of the License, or
   (at your option) any later version.
   
   xtb is distributed in the hope that it will be useful,
   but WITHOUT ANY WARRANTY; without even the implied warranty of
   MERCHANTABILITY or FITNESS FOR A PARTICULAR PURPOSE.  See the
   GNU Lesser General Public License for more details.
   
   Cite this work as:
   * C. Bannwarth, E. Caldeweyher, S. Ehlert, A. Hansen, P. Pracht,
     J. Seibert, S. Spicher, S. Grimme, WIREs Comput. Mol. Sci., 2020, 11,
     e01493. DOI: 10.1002/wcms.1493
   
   for GFN2-xTB:
   * C. Bannwarth, S. Ehlert and S. Grimme., J. Chem. Theory Comput., 2019,
     15, 1652-1671. DOI: 10.1021/acs.jctc.8b01176
   for GFN1-xTB:
   * S. Grimme, C. Bannwarth, P. Shushkov, J. Chem. Theory Comput., 2017,
     13, 1989-2009. DOI: 10.1021/acs.jctc.7b00118
   for GFN0-xTB:
   * P. Pracht, E. Caldeweyher, S. Ehlert, S. Grimme, ChemRxiv, 2019, preprint.
     DOI: 10.26434/chemrxiv.8326202.v1
   for GFN-FF:
   * S. Spicher and S. Grimme, Angew. Chem. Int. Ed., 2020, 59, 15665-15673.
     DOI: 10.1002/anie.202004239
   
   for ALPB and GBSA implicit solvation:
   * S. Ehlert, M. Stahn, S. Spicher, S. Grimme, J. Chem. Theory Comput.,
     2021, 17, 4250-4261. DOI: 10.1021/acs.jctc.1c00471
   
   for DFT-D4:
   * E. Caldeweyher, C. Bannwarth and S. Grimme, J. Chem. Phys., 2017,
     147, 034112. DOI: 10.1063/1.4993215
   * E. Caldeweyher, S. Ehlert, A. Hansen, H. Neugebauer, S. Spicher,
     C. Bannwarth and S. Grimme, J. Chem. Phys., 2019, 150, 154122.
     DOI: 10.1063/1.5090222
   * E. Caldeweyher, J.-M. Mewes, S. Ehlert and S. Grimme, Phys. Chem. Chem. Phys.
     2020, 22, 8499-8512. DOI: 10.1039/D0CP00502A
   
   for sTDA-xTB:
   * S. Grimme and C. Bannwarth, J. Chem. Phys., 2016, 145, 054103.
     DOI: 10.1063/1.4959605
   
   in the mass-spec context:
   * V. Asgeirsson, C. Bauer and S. Grimme, Chem. Sci., 2017, 8, 4879.
     DOI: 10.1039/c7sc00601b
   * J. Koopman and S. Grimme, ACS Omega 2019, 4, 12, 15120-15133.
     DOI: 10.1021/acsomega.9b02011
   
   for metadynamics refer to:
   * S. Grimme, J. Chem. Theory Comput., 2019, 155, 2847-2862
     DOI: 10.1021/acs.jctc.9b00143
   
   for SPH calculations refer to:
   * S. Spicher and S. Grimme, J. Chem. Theory Comput., 2021, 17, 1701-1714
     DOI: 10.1021/acs.jctc.0c01306
   
   with help from (in alphabetical order)
   P. Atkinson, C. Bannwarth, F. Bohle, G. Brandenburg, E. Caldeweyher
   M. Checinski, S. Dohm, S. Ehlert, S. Ehrlich, I. Gerasimov, C. Hölzer
   A. Katbashev, J. Koopman, C. Lavigne, S. Lehtola, F. März, M. Müller,
   F. Musil, H. Neugebauer, J. Pisarek, C. Plett, P. Pracht, F. Pultar,
   J. Seibert, P. Shushkov, S. Spicher, M. Stahn, M. Steiner, T. Strunk,
   J. Stückrath, T. Rose, and J. Unsleber
   
 * started run on 2025/06/07 at 03:27:47.163     

           -------------------------------------------------
          |                Calculation Setup                |
           -------------------------------------------------

          program call               : xtb BBe2C3H6.xyz --gfn 2 --opt
          coordinate file            : BBe2C3H6.xyz
          omp threads                :                    16

   ID    Z sym.   atoms
    1    4 Be     1, 2
    2    5 B      3
    3    6 C      4-6
    4    1 H      7-12

molecular fragmentation (1/2 indicates fragments):
122222222222
# atoms in fragment 1/2:     1    11
 fragment masses (1/2) :        9.01       61.90
CMA distance (Bohr)    :  10.655
constraining FC (au)   :  0.0500

           -------------------------------------------------
          |                 G F N 2 - x T B                 |
           -------------------------------------------------

        Reference                      10.1021/acs.jctc.8b01176
      * Hamiltonian:
        H0-scaling (s, p, d)           1.850000    2.230000    2.230000
        zeta-weighting                 0.500000
      * Dispersion:
        s8                             2.700000
        a1                             0.520000
        a2                             5.000000
        s9                             5.000000
      * Repulsion:
        kExp                           1.500000    1.000000
        rExp                           1.000000
      * Coulomb:
        alpha                          2.000000
        third order                    shell-resolved
        anisotropic                    true
        a3                             3.000000
        a5                             4.000000
        cn-shift                       1.200000
        cn-exp                         4.000000
        max-rad                        5.000000


          ...................................................
          :                      SETUP                      :
          :.................................................:
          :  # basis functions                  30          :
          :  # atomic orbitals                  30          :
          :  # shells                           18          :
          :  # electrons                        25          :
          :  max. iterations                   250          :
          :  Hamiltonian                  GFN2-xTB          :
          :  restarted?                      false          :
          :  GBSA solvation                  false          :
          :  PC potential                    false          :
          :  electronic temp.          300.0000000     K    :
          :  accuracy                    1.0000000          :
          :  -> integral cutoff          0.2500000E+02      :
          :  -> integral neglect         0.1000000E-07      :
          :  -> SCF convergence          0.1000000E-05 Eh   :
          :  -> wf. convergence          0.1000000E-03 e    :
          :  Broyden damping             0.4000000          :
          ...................................................

 iter      E             dE          RMSdq      gap      omega  full diag
   1     30.4490438  0.304490E+02  0.291E+01    1.40       0.0  T
   2      1.2727641 -0.291763E+02  0.229E+01    0.39       1.0  T
   3     -2.9764819 -0.424925E+01  0.198E+01    0.69       1.0  T
   4     -5.3433514 -0.236687E+01  0.114E+01    0.32       1.0  T
   5     -4.9798518  0.363500E+00  0.139E+01    0.27       1.0  T
   6     -6.1969835 -0.121713E+01  0.119E+01    0.11       1.0  T
   7     -9.6682261 -0.347124E+01  0.156E+01    0.68       1.0  T
   8     -7.0902172  0.257801E+01  0.889E+00    0.73       1.0  T
   9     -6.9954202  0.947970E-01  0.890E+00    0.71       1.0  T
  10     -7.5844931 -0.589073E+00  0.110E+01    0.60       1.0  T
  11     26.1975741  0.337821E+02  0.239E+01    2.25       1.0  T
  12     -0.9019690 -0.270995E+02  0.152E+01    0.67       1.0  T
  13     10.5979815  0.115000E+02  0.213E+01    0.11       1.0  T
  14     21.7691042  0.111711E+02  0.212E+01    0.43       1.0  T
  15      8.5339195 -0.132352E+02  0.194E+01    0.11       1.0  T
  16     -6.9575713 -0.154915E+02  0.907E+00    0.83       1.0  T
  17     -7.5046778 -0.547106E+00  0.719E+00    0.68       1.0  T
  18     -7.5162316 -0.115538E-01  0.709E+00    0.51       1.0  T
  19     -7.9308210 -0.414589E+00  0.732E+00    0.62       1.0  T
  20     -7.7419731  0.188848E+00  0.718E+00    0.59       1.0  T
  21     -7.4917324  0.250241E+00  0.719E+00    0.55       1.0  T
  22     -7.8380893 -0.346357E+00  0.706E+00    0.61       1.0  T
  23     -8.1678582 -0.329769E+00  0.699E+00    0.51       1.0  T
  24     -8.1798188 -0.119605E-01  0.698E+00    0.47       1.0  T
  25     -8.1975054 -0.176867E-01  0.701E+00    0.55       1.0  T
  26     -8.0992944  0.982110E-01  0.707E+00    0.64       1.0  T
  27     -8.0947247  0.456974E-02  0.708E+00    0.64       1.0  T
  28     -8.2271804 -0.132456E+00  0.696E+00    0.42       1.0  T
  29    -10.7668132 -0.253963E+01  0.120E+01    0.46       1.0  T
  30    -10.7661108  0.702454E-03  0.120E+01    0.46       1.0  T
  31    -10.7679416 -0.183085E-02  0.119E+01    0.46       1.0  T
  32    -10.7566046  0.113370E-01  0.118E+01    0.45       1.0  T
  33    -10.7318576  0.247470E-01  0.123E+01    0.46       1.0  T
  34    -10.7138890  0.179686E-01  0.134E+01    0.46       1.0  T
  35    -10.7488520 -0.349630E-01  0.142E+01    0.46       1.0  T
  36     -9.5827136  0.116614E+01  0.977E+00    0.19       1.0  T
  37     -9.7037316 -0.121018E+00  0.100E+01    0.28       1.0  T
  38    -10.6806553 -0.976924E+00  0.148E+01    0.46       1.0  T
  39    -10.3646930  0.315962E+00  0.135E+01    0.45       1.0  T
  40     -9.8865950  0.478098E+00  0.110E+01    0.37       1.0  T
  41    -10.1957333 -0.309138E+00  0.125E+01    0.44       1.0  T
  42    -10.5616371 -0.365904E+00  0.144E+01    0.46       1.0  T
  43    -10.0962234  0.465414E+00  0.120E+01    0.42       1.0  T
  44    -10.5996777 -0.503454E+00  0.149E+01    0.46       1.0  T
  45    -10.2987619  0.300916E+00  0.131E+01    0.45       1.0  T
  46    -10.6843053 -0.385543E+00  0.151E+01    0.46       1.0  T
  47    -10.5365500  0.147755E+00  0.146E+01    0.46       1.0  T
  48    -10.3553220  0.181228E+00  0.136E+01    0.46       1.0  T
  49    -10.4222038 -0.668818E-01  0.139E+01    0.46       1.0  T
  50     -9.8213622  0.600842E+00  0.107E+01    0.35       1.0  T
  51     -9.6182584  0.203104E+00  0.984E+00    0.22       1.0  T
  52     -8.5814962  0.103676E+01  0.692E+00    0.14       1.0  T
  53     -8.1755786  0.405918E+00  0.677E+00    0.57       1.0  T
  54     -8.2032639 -0.276854E-01  0.668E+00    0.36       1.0  T
  55     -8.5174599 -0.314196E+00  0.686E+00    0.12       1.0  T
  56     -8.5178131 -0.353250E-03  0.687E+00    0.12       1.0  T
  57     -8.6103493 -0.925362E-01  0.698E+00    0.11       1.0  T
  58     -8.7456063 -0.135257E+00  0.719E+00    0.09       1.0  T
  59     -8.7692812 -0.236749E-01  0.722E+00    0.09       1.0  T
  60     -8.8301885 -0.609073E-01  0.733E+00    0.09       1.0  T
  61     -8.8429145 -0.127260E-01  0.736E+00    0.09       1.0  T
  62     -9.4233785 -0.580464E+00  0.878E+00    0.13       1.0  T
  63     -9.5094234 -0.860449E-01  0.905E+00    0.16       1.0  T
  64     -9.5560427 -0.466193E-01  0.920E+00    0.18       1.0  T
  65     -9.6336093 -0.775666E-01  0.940E+00    0.23       1.0  T
  66    -10.0873012 -0.453692E+00  0.108E+01    0.42       1.0  T
  67    -10.6850792 -0.597778E+00  0.135E+01    0.45       1.0  T
  68    -10.7257965 -0.407174E-01  0.132E+01    0.45       1.0  T
  69    -10.7876130 -0.618165E-01  0.106E+01    0.45       1.0  T
  70    -10.8036637 -0.160507E-01  0.111E+01    0.45       1.0  T
  71    -10.8060737 -0.241004E-02  0.111E+01    0.45       1.0  T
  72    -10.8178115 -0.117378E-01  0.836E+00    0.44       1.0  T
  73    -10.8261627 -0.835117E-02  0.878E+00    0.44       1.0  T
  74    -10.8204476  0.571506E-02  0.739E+00    0.44       1.0  T
  75    -10.8186139  0.183379E-02  0.744E+00    0.44       1.0  T
  76    -10.8180307  0.583114E-03  0.661E+00    0.44       1.0  T
  77    -10.7997836  0.182471E-01  0.680E+00    0.44       1.0  T
  78    -10.8090775 -0.929383E-02  0.594E+00    0.44       1.0  T
  79    -10.8040112  0.506625E-02  0.571E+00    0.44       1.0  T
  80    -10.7975275  0.648375E-02  0.552E+00    0.44       1.0  T
  81    -10.7752146  0.223129E-01  0.524E+00    0.43       1.0  T
  82    -10.7913877 -0.161732E-01  0.495E+00    0.44       1.0  T
  83    -10.7746422  0.167455E-01  0.404E+00    0.44       1.0  T
  84    -10.7717481  0.289404E-02  0.357E+00    0.44       1.0  T
  85    -10.7577072  0.140410E-01  0.344E+00    0.44       1.0  T
  86    -10.7459207  0.117865E-01  0.322E+00    0.44       1.0  T
  87    -10.7347723  0.111484E-01  0.313E+00    0.44       1.0  T
  88    -10.7215686  0.132037E-01  0.312E+00    0.45       1.0  T
  89    -10.7188877  0.268091E-02  0.311E+00    0.45       1.0  T
  90    -10.7209129 -0.202526E-02  0.311E+00    0.45       1.0  T
  91    -10.7386306 -0.177177E-01  0.310E+00    0.45       1.0  T
  92    -10.7747768 -0.361462E-01  0.334E+00    0.45       1.0  T
  93    -10.8200375 -0.452607E-01  0.363E+00    0.45       1.0  T
  94    -10.8860523 -0.660148E-01  0.401E+00    0.46       1.0  T
  95    -10.9422615 -0.562092E-01  0.406E+00    0.46       1.0  T
  96    -10.9444330 -0.217147E-02  0.404E+00    0.46       1.0  T
  97    -11.0623094 -0.117876E+00  0.454E+00    0.10       1.0  T
  98    -10.9819573  0.803520E-01  0.833E+00    0.13       1.0  T
  99    -10.8767308  0.105226E+00  0.945E+00    0.32       1.0  T
 100    -10.9245080 -0.477772E-01  0.897E+00    0.25       1.0  T
 101    -10.9245991 -0.911038E-04  0.897E+00    0.25       1.0  T
 102    -10.9155570  0.904210E-02  0.907E+00    0.26       1.0  T
 103    -10.8997861  0.157710E-01  0.923E+00    0.29       1.0  T
 104    -10.9288995 -0.291135E-01  0.887E+00    0.24       1.0  T
 105    -10.6089965  0.319903E+00  0.118E+01    0.40       1.0  T
 106    -10.0937051  0.515291E+00  0.152E+01    0.39       1.0  T
 107    -10.7924773 -0.698772E+00  0.102E+01    0.36       1.0  T
 108    -11.0027764 -0.210299E+00  0.779E+00    0.11       1.0  T
 109    -11.0553968 -0.526204E-01  0.389E+00    0.10       1.0  T
 110    -11.0039268  0.514700E-01  0.381E+00    0.25       1.0  T
 111    -10.9124682  0.914587E-01  0.909E+00    0.26       1.0  T
 112     -9.7960894  0.111638E+01  0.161E+01    0.28       1.0  T
 113     -9.0517704  0.744319E+00  0.160E+01    0.13       1.0  T
 114     -9.9162774 -0.864507E+00  0.159E+01    0.33       1.0  T
 115     -7.7213841  0.219489E+01  0.151E+01    0.06       1.0  T
 116     -7.5686747  0.152709E+00  0.149E+01    0.05       1.0  T
 117     -9.1034831 -0.153481E+01  0.159E+01    0.13       1.0  T
 118     -7.4232000  0.168028E+01  0.149E+01    0.05       1.0  T
 119     -9.8752771 -0.245208E+01  0.159E+01    0.31       1.0  T
 120     -9.6484696  0.226808E+00  0.162E+01    0.22       1.0  T
 121     -9.6606553 -0.121856E-01  0.162E+01    0.23       1.0  T
 122     -9.6329511  0.277041E-01  0.162E+01    0.22       1.0  T
 123     -9.4396081  0.193343E+00  0.161E+01    0.17       1.0  T
 124     -7.1359152  0.230369E+01  0.146E+01    0.04       1.0  T
 125     -9.9904239 -0.285451E+01  0.151E+01    0.34       1.0  T
 126     -7.2877249  0.270270E+01  0.147E+01    0.04       1.0  T
 127    -10.9363461 -0.364862E+01  0.840E+00    0.21       1.0  T
 128     -7.0782596  0.385809E+01  0.144E+01    0.04       1.0  T
 129    -10.4518106 -0.337355E+01  0.125E+01    0.41       1.0  T
 130     -8.1180554  0.233376E+01  0.148E+01    0.06       1.0  T
 131    -10.4651597 -0.234710E+01  0.125E+01    0.43       1.0  T
 132     -9.7732587  0.691901E+00  0.159E+01    0.29       1.0  T
 133     -7.4239048  0.234935E+01  0.141E+01    0.03       1.0  T
 134     -9.8879099 -0.246401E+01  0.157E+01    0.37       1.0  T
 135     -9.2540322  0.633878E+00  0.155E+01    0.13       1.0  T
 136     -9.8870990 -0.633067E+00  0.154E+01    0.37       1.0  T
 137     -9.6211354  0.265964E+00  0.158E+01    0.22       1.0  T
 138     -9.0254858  0.595650E+00  0.153E+01    0.11       1.0  T
 139     -7.3648211  0.166066E+01  0.141E+01    0.04       1.0  T
 140     -9.7617290 -0.239691E+01  0.158E+01    0.29       1.0  T
 141     -7.8894004  0.187233E+01  0.143E+01    0.05       1.0  T
 142     -9.8694226 -0.198002E+01  0.156E+01    0.36       1.0  T
 143     -8.1274317  0.174199E+01  0.145E+01    0.06       1.0  T
 144     -9.8599322 -0.173250E+01  0.157E+01    0.35       1.0  T
 145     -8.1805935  0.167934E+01  0.146E+01    0.06       1.0  T
 146     -9.9220558 -0.174146E+01  0.155E+01    0.37       1.0  T
 147     -8.4547213  0.146733E+01  0.148E+01    0.07       1.0  T
 148     -9.9485425 -0.149382E+01  0.155E+01    0.38       1.0  T
 149     -9.1209923  0.827550E+00  0.155E+01    0.12       1.0  T
 150     -9.6996772 -0.578685E+00  0.160E+01    0.25       1.0  T
 151     -9.4506845  0.248993E+00  0.159E+01    0.17       1.0  T
 152     -9.5287264 -0.780420E-01  0.160E+01    0.19       1.0  T
 153     -9.5904293 -0.617029E-01  0.160E+01    0.20       1.0  T
 154     -9.5739400  0.164893E-01  0.160E+01    0.20       1.0  T
 155    -10.0879258 -0.513986E+00  0.150E+01    0.39       1.0  T
 156     -9.8708356  0.217090E+00  0.158E+01    0.33       1.0  T
 157    -10.1719192 -0.301084E+00  0.145E+01    0.40       1.0  T
 158    -10.2051248 -0.332055E-01  0.142E+01    0.40       1.0  T
 159    -10.7280930 -0.522968E+00  0.102E+01    0.37       1.0  T
 160    -10.7131175  0.149755E-01  0.103E+01    0.37       1.0  T
 161    -10.6572359  0.558815E-01  0.108E+01    0.38       1.0  T
 162    -10.8513753 -0.194139E+00  0.885E+00    0.32       1.0  T
 163    -10.8994857 -0.481104E-01  0.827E+00    0.27       1.0  T
 164    -10.9256448 -0.261591E-01  0.794E+00    0.23       1.0  T
 165    -10.9531673 -0.275225E-01  0.756E+00    0.18       1.0  T
 166    -11.0263295 -0.731622E-01  0.623E+00    0.08       1.0  T
 167    -11.0286343 -0.230478E-02  0.186E+00    0.18       1.0  T
 168    -10.9719222  0.567121E-01  0.245E+00    0.43       1.0  T
 169    -11.0057034 -0.337813E-01  0.585E+00    0.09       1.0  T
 170    -11.0918077 -0.861043E-01  0.274E+00    0.03       1.0  T
 171    -11.0930436 -0.123589E-02  0.298E+00    0.02       1.0  T
 172    -11.0234092  0.696345E-01  0.568E+00    0.08       1.0  T
 173    -10.9151610  0.108248E+00  0.760E+00    0.24       1.0  T
 174    -10.8874305  0.277305E-01  0.794E+00    0.29       1.0  T
 175    -10.6342240  0.253206E+00  0.104E+01    0.39       1.0  T
 176     -9.9075453  0.726679E+00  0.152E+01    0.36       1.0  T
 177     -9.8882654  0.192799E-01  0.155E+01    0.35       1.0  T
 178     -9.7459411  0.142324E+00  0.158E+01    0.27       1.0  T
 179     -9.8883514 -0.142410E+00  0.156E+01    0.34       1.0  T
 180     -9.8682381  0.201133E-01  0.156E+01    0.33       1.0  T
 181     -9.8853935 -0.171554E-01  0.156E+01    0.34       1.0  T
 182     -9.8916775 -0.628392E-02  0.155E+01    0.35       1.0  T
 183     -9.9086700 -0.169925E-01  0.155E+01    0.35       1.0  T
 184     -9.9150519 -0.638190E-02  0.154E+01    0.36       1.0  T
 185     -9.9463255 -0.312736E-01  0.153E+01    0.37       1.0  T
 186     -9.9068246  0.395009E-01  0.154E+01    0.36       1.0  T
 187     -9.9004123  0.641233E-02  0.154E+01    0.36       1.0  T
 188     -9.8166199  0.837924E-01  0.157E+01    0.32       1.0  T
 189     -9.8149253  0.169456E-02  0.157E+01    0.32       1.0  T
 190     -9.6163332  0.198592E+00  0.158E+01    0.21       1.0  T
 191     -9.6067265  0.960666E-02  0.158E+01    0.21       1.0  T
 192     -9.6224347 -0.157081E-01  0.158E+01    0.22       1.0  T
 193     -9.6561838 -0.337492E-01  0.158E+01    0.23       1.0  T
 194     -9.6911577 -0.349739E-01  0.158E+01    0.25       1.0  T
 195     -9.6933253 -0.216764E-02  0.158E+01    0.25       1.0  T
 196     -9.6655468  0.277785E-01  0.158E+01    0.24       1.0  T
 197     -9.5987592  0.667876E-01  0.158E+01    0.21       1.0  T
 198     -9.5393538  0.594054E-01  0.157E+01    0.19       1.0  T
 199     -9.5624948 -0.231409E-01  0.157E+01    0.20       1.0  T
 200     -9.6414735 -0.789787E-01  0.157E+01    0.22       1.0  T
 201     -9.6634906 -0.220171E-01  0.158E+01    0.23       1.0  T
 202     -9.6627125  0.778082E-03  0.158E+01    0.23       1.0  T
 203     -9.5844834  0.782291E-01  0.157E+01    0.20       1.0  T
 204     -9.4371750  0.147308E+00  0.156E+01    0.16       1.0  T
 205     -9.4937045 -0.565295E-01  0.156E+01    0.18       1.0  T
 206     -9.5671600 -0.734555E-01  0.157E+01    0.20       1.0  T
 207     -9.5980815 -0.309215E-01  0.157E+01    0.21       1.0  T
 208     -9.6069098 -0.882831E-02  0.157E+01    0.21       1.0  T
 209     -9.6948695 -0.879597E-01  0.157E+01    0.25       1.0  T
 210     -9.7065150 -0.116455E-01  0.157E+01    0.25       1.0  T
 211     -9.6145603  0.919547E-01  0.156E+01    0.22       1.0  T
 212     -9.6582686 -0.437083E-01  0.156E+01    0.24       1.0  T
 213     -9.1414663  0.516802E+00  0.153E+01    0.13       1.0  T
 214     -9.8084192 -0.666953E+00  0.155E+01    0.32       1.0  T
 215     -8.4709546  0.133746E+01  0.147E+01    0.07       1.0  T
 216    -10.4560319 -0.198508E+01  0.120E+01    0.37       1.0  T
 217     -8.2007080  0.225532E+01  0.145E+01    0.06       1.0  T
 218    -10.9129651 -0.271226E+01  0.770E+00    0.21       1.0  T
 219     -9.0733572  0.183961E+01  0.152E+01    0.11       1.0  T
 220     -9.7129053 -0.639548E+00  0.157E+01    0.26       1.0  T
 221     -8.1855581  0.152735E+01  0.145E+01    0.06       1.0  T
 222     -9.8429596 -0.165740E+01  0.156E+01    0.33       1.0  T
 223     -9.4975040  0.345456E+00  0.156E+01    0.18       1.0  T
 224     -9.1814303  0.316074E+00  0.154E+01    0.13       1.0  T
 225     -9.2214015 -0.399712E-01  0.155E+01    0.13       1.0  T
 226     -9.2295733 -0.817182E-02  0.155E+01    0.13       1.0  T
 227     -9.0446612  0.184912E+00  0.153E+01    0.11       1.0  T
 228     -9.3427416 -0.298080E+00  0.156E+01    0.15       1.0  T
 229     -9.1963092  0.146432E+00  0.154E+01    0.13       1.0  T
 230     -9.2870356 -0.907264E-01  0.155E+01    0.14       1.0  T
 231     -9.2765710  0.104646E-01  0.155E+01    0.14       1.0  T
 232     -9.2286875  0.478836E-01  0.155E+01    0.13       1.0  T
 233     -9.4156857 -0.186998E+00  0.156E+01    0.16       1.0  T
 234     -9.2949265  0.120759E+00  0.155E+01    0.14       1.0  T
 235     -9.3461080 -0.511815E-01  0.156E+01    0.14       1.0  T
 236     -9.3755911 -0.294830E-01  0.156E+01    0.15       1.0  T
 237     -9.2895295  0.860616E-01  0.155E+01    0.13       1.0  T
 238     -9.5253559 -0.235826E+00  0.157E+01    0.17       1.0  T
 239     -9.5465833 -0.212274E-01  0.156E+01    0.18       1.0  T
 240     -9.5334227  0.131605E-01  0.156E+01    0.17       1.0  T
 241     -9.4215728  0.111850E+00  0.156E+01    0.15       1.0  T
 242     -9.4585025 -0.369297E-01  0.157E+01    0.16       1.0  T
 243     -9.4901961 -0.316935E-01  0.157E+01    0.16       1.0  T
 244     -9.4943912 -0.419509E-02  0.157E+01    0.16       1.0  T
 245     -9.5143609 -0.199697E-01  0.157E+01    0.17       1.0  T
 246     -9.5243151 -0.995422E-02  0.157E+01    0.17       1.0  T
 247     -9.5223709  0.194416E-02  0.157E+01    0.17       1.0  T
 248     -9.5436153 -0.212444E-01  0.157E+01    0.17       1.0  T
 249     -9.5436065  0.876630E-05  0.157E+01    0.17       1.0  T
 250     -9.5240767  0.195298E-01  0.157E+01    0.17       1.0  T

   *** convergence criteria cannot be satisfied within 250 iterations ***

         #    Occupation            Energy/Eh            Energy/eV
      -------------------------------------------------------------
         1        2.0000           -0.5599962             -15.2383
       ...           ...                  ...                  ...
         7        2.0000           -0.3472770              -9.4499
         8        2.0000           -0.3323048              -9.0425
         9        2.0000           -0.2873790              -7.8200
        10        2.0000           -0.2784470              -7.5769
        11        2.0000           -0.2728489              -7.4246
        12        1.9994           -0.2607544              -7.0955
        13        0.9630           -0.2465414              -6.7087 (HOMO)
        14        0.0369           -0.2403606              -6.5405 (LUMO)
        15        0.0007           -0.2365781              -6.4376
        16                         -0.2278471              -6.2000
        17                         -0.2123476              -5.7783
        18                         -0.1780022              -4.8437
       ...                                ...                  ...
        30                          0.7965245              21.6745
      -------------------------------------------------------------
                  HL-Gap            0.0061808 Eh            0.1682 eV
             Fermi-level           -0.2485545 Eh           -6.7635 eV
Note: The following floating-point exceptions are signalling: IEEE_UNDERFLOW_FLAG
ERROR STOP 

Error termination. Backtrace:
#0  0x105be8327
#1  0x105be9147
#2  0x105bea72b
#3  0x1056702e7
#4  0x104db8ce7
#5  0x104dc33bf
abnormal termination of xtb

 SCC (total)                   0 d,  0 h,  0 min,  0.245 sec
 SCC setup                      ...        0 min,  0.000 sec (  0.026%)
 Dispersion                     ...        0 min,  0.000 sec (  0.061%)
 classical contributions        ...        0 min,  0.000 sec (  0.022%)
 integral evaluation            ...        0 min,  0.000 sec (  0.063%)
 iterations                     ...        0 min,  0.244 sec ( 99.614%)
 molecular gradient             ...        0 min,  0.000 sec (  0.188%)
 printout                       ...        0 min,  0.000 sec (  0.021%)

########################################################################
[ERROR] Program stopped due to fatal error
-6- Single point calculation terminated
-5- xtb_calculator_singlepoint: Electronic structure method terminated
-4- scf: Self consistent charge iterator did not converge
-3- restart_readRestart: Dimension missmatch in restart file.
-2- restart_readRestart: Multiplicity missmatch in restart file.
-1- restart_readRestart: Number of electron missmatch in restart file.
########################################################################
