      -----------------------------------------------------------      
     |                   =====================                   |     
     |                           x T B                           |     
     |                   =====================                   |     
     |                         S. Grimme                         |     
     |          Mulliken Center for Theoretical Chemistry        |     
     |                    University of Bonn                     |     
      -----------------------------------------------------------      

   * xtb version 6.5.1 (conda-forge) compiled by 'runner@Mac-1657629245115.local' on 2022-07-12

   xtb is free software: you can redistribute it and/or modify it under
   the terms of the GNU Lesser General Public License as published by
   the Free Software Foundation, either version 3 of the License, or
   (at your option) any later version.
   
   xtb is distributed in the hope that it will be useful,
   but WITHOUT ANY WARRANTY; without even the implied warranty of
   MERCHANTABILITY or FITNESS FOR A PARTICULAR PURPOSE.  See the
   GNU Lesser General Public License for more details.
   
   Cite this work as:
   * C. Bannwarth, E. Caldeweyher, S. Ehlert, A. Hansen, P. Pracht,
     J. Seibert, S. Spicher, S. Grimme, WIREs Comput. Mol. Sci., 2020, 11,
     e01493. DOI: 10.1002/wcms.1493
   
   for GFN2-xTB:
   * C. Bannwarth, S. Ehlert and S. Grimme., J. Chem. Theory Comput., 2019,
     15, 1652-1671. DOI: 10.1021/acs.jctc.8b01176
   for GFN1-xTB:
   * S. Grimme, C. Bannwarth, P. Shushkov, J. Chem. Theory Comput., 2017,
     13, 1989-2009. DOI: 10.1021/acs.jctc.7b00118
   for GFN0-xTB:
   * P. Pracht, E. Caldeweyher, S. Ehlert, S. Grimme, ChemRxiv, 2019, preprint.
     DOI: 10.26434/chemrxiv.8326202.v1
   for GFN-FF:
   * S. Spicher and S. Grimme, Angew. Chem. Int. Ed., 2020, 59, 15665-15673.
     DOI: 10.1002/anie.202004239
   
   for ALPB and GBSA implicit solvation:
   * S. Ehlert, M. Stahn, S. Spicher, S. Grimme, J. Chem. Theory Comput.,
     2021, 17, 4250-4261. DOI: 10.1021/acs.jctc.1c00471
   
   for DFT-D4:
   * E. Caldeweyher, C. Bannwarth and S. Grimme, J. Chem. Phys., 2017,
     147, 034112. DOI: 10.1063/1.4993215
   * E. Caldeweyher, S. Ehlert, A. Hansen, H. Neugebauer, S. Spicher,
     C. Bannwarth and S. Grimme, J. Chem. Phys., 2019, 150, 154122.
     DOI: 10.1063/1.5090222
   * E. Caldeweyher, J.-M. Mewes, S. Ehlert and S. Grimme, Phys. Chem. Chem. Phys.
     2020, 22, 8499-8512. DOI: 10.1039/D0CP00502A
   
   for sTDA-xTB:
   * S. Grimme and C. Bannwarth, J. Chem. Phys., 2016, 145, 054103.
     DOI: 10.1063/1.4959605
   
   in the mass-spec context:
   * V. Asgeirsson, C. Bauer and S. Grimme, Chem. Sci., 2017, 8, 4879.
     DOI: 10.1039/c7sc00601b
   * J. Koopman and S. Grimme, ACS Omega 2019, 4, 12, 15120-15133.
     DOI: 10.1021/acsomega.9b02011
   
   for metadynamics refer to:
   * S. Grimme, J. Chem. Theory Comput., 2019, 155, 2847-2862
     DOI: 10.1021/acs.jctc.9b00143
   
   for SPH calculations refer to:
   * S. Spicher and S. Grimme, J. Chem. Theory Comput., 2021, 17, 1701-1714
     DOI: 10.1021/acs.jctc.0c01306
   
   with help from (in alphabetical order)
   P. Atkinson, C. Bannwarth, F. Bohle, G. Brandenburg, E. Caldeweyher
   M. Checinski, S. Dohm, S. Ehlert, S. Ehrlich, I. Gerasimov, C. Hölzer
   A. Katbashev, J. Koopman, C. Lavigne, S. Lehtola, F. März, M. Müller,
   F. Musil, H. Neugebauer, J. Pisarek, C. Plett, P. Pracht, F. Pultar,
   J. Seibert, P. Shushkov, S. Spicher, M. Stahn, M. Steiner, T. Strunk,
   J. Stückrath, T. Rose, and J. Unsleber
   
 * started run on 2025/06/07 at 03:27:46.565     

           -------------------------------------------------
          |                Calculation Setup                |
           -------------------------------------------------

          program call               : xtb BBe2C2H4.xyz --gfn 2 --opt
          coordinate file            : BBe2C2H4.xyz
          omp threads                :                    16

   ID    Z sym.   atoms
    1    4 Be     1, 2
    2    5 B      3
    3    6 C      4, 5
    4    1 H      6-9

molecular fragmentation (1/2 indicates fragments):
122222222
# atoms in fragment 1/2:     1     8
 fragment masses (1/2) :        9.01       47.88
CMA distance (Bohr)    :   9.930
constraining FC (au)   :  0.0500

           -------------------------------------------------
          |                 G F N 2 - x T B                 |
           -------------------------------------------------

        Reference                      10.1021/acs.jctc.8b01176
      * Hamiltonian:
        H0-scaling (s, p, d)           1.850000    2.230000    2.230000
        zeta-weighting                 0.500000
      * Dispersion:
        s8                             2.700000
        a1                             0.520000
        a2                             5.000000
        s9                             5.000000
      * Repulsion:
        kExp                           1.500000    1.000000
        rExp                           1.000000
      * Coulomb:
        alpha                          2.000000
        third order                    shell-resolved
        anisotropic                    true
        a3                             3.000000
        a5                             4.000000
        cn-shift                       1.200000
        cn-exp                         4.000000
        max-rad                        5.000000


          ...................................................
          :                      SETUP                      :
          :.................................................:
          :  # basis functions                  24          :
          :  # atomic orbitals                  24          :
          :  # shells                           14          :
          :  # electrons                        19          :
          :  max. iterations                   250          :
          :  Hamiltonian                  GFN2-xTB          :
          :  restarted?                      false          :
          :  GBSA solvation                  false          :
          :  PC potential                    false          :
          :  electronic temp.          300.0000000     K    :
          :  accuracy                    1.0000000          :
          :  -> integral cutoff          0.2500000E+02      :
          :  -> integral neglect         0.1000000E-07      :
          :  -> SCF convergence          0.1000000E-05 Eh   :
          :  -> wf. convergence          0.1000000E-03 e    :
          :  Broyden damping             0.4000000          :
          ...................................................

 iter      E             dE          RMSdq      gap      omega  full diag
   1     28.1057893  0.281058E+02  0.296E+01    0.71       0.0  T
   2      0.0699128 -0.280359E+02  0.241E+01    2.61       1.0  T
   3     -1.7476696 -0.181758E+01  0.184E+01    0.98       1.0  T
   4     -2.2661375 -0.518468E+00  0.138E+01    1.56       1.0  T
   5     -3.2750815 -0.100894E+01  0.110E+01    0.60       1.0  T
   6     -5.1007241 -0.182564E+01  0.116E+01    0.13       1.0  T
   7     -3.7324924  0.136823E+01  0.945E+00    1.53       1.0  T
   8     -3.9396361 -0.207144E+00  0.946E+00    1.58       1.0  T
   9     -3.9192510  0.203851E-01  0.922E+00    1.56       1.0  T
  10     36.8265839  0.407458E+02  0.480E+01    1.52       1.0  T
  11     29.0736948 -0.775289E+01  0.331E+01    0.34       1.0  T
  12     30.6669732  0.159328E+01  0.328E+01    1.11       1.0  T
  13     22.5676397 -0.809933E+01  0.266E+01    0.15       1.0  T
  14     29.6764582  0.710882E+01  0.329E+01    1.00       1.0  T
  15     31.7203964  0.204394E+01  0.343E+01    1.44       1.0  T
  16     -7.2623835 -0.389828E+02  0.193E+01    0.89       1.0  T
  17     11.9787618  0.192411E+02  0.228E+01    0.57       1.0  T
  18     12.9436425  0.964881E+00  0.230E+01    0.52       1.0  T
  19     28.1857087  0.152421E+02  0.295E+01    0.77       1.0  T
  20     13.4023752 -0.147833E+02  0.228E+01    0.48       1.0  T
  21     -5.1907877 -0.185932E+02  0.221E+01    0.07       1.0  T
  22     -7.6115915 -0.242080E+01  0.184E+01    0.91       1.0  T
  23     -7.7047192 -0.931277E-01  0.171E+01    0.78       1.0  T
  24     -7.7213475 -0.166283E-01  0.145E+01    0.40       1.0  T
  25     -7.6695501  0.517974E-01  0.147E+01    0.39       1.0  T
  26     -7.6494954  0.200547E-01  0.148E+01    0.38       1.0  T
  27     -7.6506517 -0.115639E-02  0.136E+01    0.37       1.0  T
  28     -7.6579081 -0.725637E-02  0.136E+01    0.38       1.0  T
  29     -7.8466139 -0.188706E+00  0.129E+01    0.35       1.0  T
  30     -7.4524523  0.394162E+00  0.126E+01    0.24       1.0  T
  31     -4.5067855  0.294567E+01  0.857E+00    0.52       1.0  T
  32     -7.8107089 -0.330392E+01  0.162E+01    0.26       1.0  T
  33     -7.9053385 -0.946296E-01  0.177E+01    0.73       1.0  T
  34     -7.9074986 -0.216007E-02  0.177E+01    0.73       1.0  T
  35     -7.9094664 -0.196779E-02  0.176E+01    0.72       1.0  T
  36     -7.8926425  0.168239E-01  0.178E+01    0.75       1.0  T
  37     -7.8727422  0.199002E-01  0.179E+01    0.77       1.0  T
  38     -7.5788803  0.293862E+00  0.213E+01    0.72       1.0  T
  39     -7.8351093 -0.256229E+00  0.189E+01    0.79       1.0  T
  40     -7.9002706 -0.651613E-01  0.184E+01    0.70       1.0  T
  41     -7.9359145 -0.356438E-01  0.171E+01    0.28       1.0  T
  42     -7.8195198  0.116395E+00  0.180E+01    0.22       1.0  T
  43     -7.8019776  0.175422E-01  0.182E+01    0.21       1.0  T
  44     -7.8548907 -0.529130E-01  0.184E+01    0.22       1.0  T
  45     -7.8606560 -0.576534E-02  0.184E+01    0.22       1.0  T
  46     -7.8479457  0.127103E-01  0.184E+01    0.22       1.0  T
  47     -7.8539976 -0.605193E-02  0.185E+01    0.22       1.0  T
  48     -7.8706159 -0.166183E-01  0.186E+01    0.23       1.0  T
  49     -7.8241622  0.464537E-01  0.201E+01    0.24       1.0  T
  50     -7.7827432  0.414190E-01  0.211E+01    0.24       1.0  T
  51     -7.7643010  0.184421E-01  0.213E+01    0.25       1.0  T
  52     -7.7450119  0.192891E-01  0.210E+01    0.26       1.0  T
  53     -7.7460965 -0.108464E-02  0.207E+01    0.28       1.0  T
  54     -7.7462947 -0.198222E-03  0.207E+01    0.28       1.0  T
  55     -7.7292151  0.170796E-01  0.204E+01    0.24       1.0  T
  56     -7.7284004  0.814691E-03  0.191E+01    0.24       1.0  T
  57     -7.7141999  0.142005E-01  0.188E+01    0.24       1.0  T
  58     -7.7187528 -0.455286E-02  0.186E+01    0.24       1.0  T
  59     -7.7644148 -0.456621E-01  0.186E+01    0.26       1.0  T
  60     -7.8555455 -0.911307E-01  0.191E+01    0.27       1.0  T
  61     -7.8605543 -0.500883E-02  0.191E+01    0.27       1.0  T
  62     -7.8692441 -0.868977E-02  0.196E+01    0.27       1.0  T
  63     -7.8688862  0.357945E-03  0.197E+01    0.28       1.0  T
  64     -7.8414416  0.274445E-01  0.185E+01    0.25       1.0  T
  65     -7.8795792 -0.381375E-01  0.184E+01    0.24       1.0  T
  66     -7.8768125  0.276665E-02  0.177E+01    0.23       1.0  T
  67     -7.8874921 -0.106796E-01  0.182E+01    0.32       1.0  T
  68     -7.9070819 -0.195898E-01  0.151E+01    0.19       1.0  T
  69     -7.9447452 -0.376632E-01  0.141E+01    0.18       1.0  T
  70     -7.8895643  0.551808E-01  0.125E+01    0.17       1.0  T
  71     -7.8599123  0.296520E-01  0.122E+01    0.17       1.0  T
  72     -7.8604663 -0.554021E-03  0.122E+01    0.16       1.0  T
  73     -7.8467982  0.136681E-01  0.122E+01    0.16       1.0  T
  74     -7.8400439  0.675431E-02  0.122E+01    0.16       1.0  T
  75     -7.8374910  0.255291E-02  0.122E+01    0.16       1.0  T
  76     -7.8500123 -0.125213E-01  0.120E+01    0.18       1.0  T
  77     -7.8390407  0.109715E-01  0.113E+01    0.18       1.0  T
  78     -7.8379770  0.106373E-02  0.102E+01    0.18       1.0  T
  79     -7.8988063 -0.608293E-01  0.954E+00    0.18       1.0  T
  80     -7.9930259 -0.942196E-01  0.103E+01    0.19       1.0  T
  81     -8.0026189 -0.959293E-02  0.102E+01    0.20       1.0  T
  82     -7.9948224  0.779650E-02  0.909E+00    0.19       1.0  T
  83     -7.9136867  0.811357E-01  0.736E+00    0.17       1.0  T
  84     -7.8253646  0.883221E-01  0.625E+00    0.17       1.0  T
  85     -7.7985521  0.268125E-01  0.570E+00    0.18       1.0  T
  86     -7.8073456 -0.879345E-02  0.560E+00    0.18       1.0  T
  87     -7.8165381 -0.919254E-02  0.541E+00    0.18       1.0  T
  88     -7.7930980  0.234401E-01  0.505E+00    0.19       1.0  T
  89     -7.7827403  0.103577E-01  0.483E+00    0.19       1.0  T
  90     -7.7948995 -0.121591E-01  0.465E+00    0.19       1.0  T
  91     -7.8213366 -0.264371E-01  0.444E+00    0.18       1.0  T
  92     -7.8301262 -0.878957E-02  0.422E+00    0.18       1.0  T
  93     -7.8625341 -0.324079E-01  0.399E+00    0.17       1.0  T
  94     -7.8934918 -0.309577E-01  0.381E+00    0.15       1.0  T
  95     -7.9319089 -0.384171E-01  0.381E+00    0.14       1.0  T
  96     -7.9324413 -0.532439E-03  0.372E+00    0.14       1.0  T
  97     -7.9156391  0.168022E-01  0.323E+00    0.14       1.0  T
  98     -7.9556799 -0.400408E-01  0.305E+00    0.13       1.0  T
  99     -7.9449152  0.107648E-01  0.272E+00    0.13       1.0  T
 100     -8.0364412 -0.915261E-01  0.275E+00    0.12       1.0  T
 101     -7.9769198  0.595215E-01  0.251E+00    0.13       1.0  T
 102     -8.0150422 -0.381225E-01  0.221E+00    0.12       1.0  T
 103     -8.0386186 -0.235764E-01  0.212E+00    0.12       1.0  T
 104     -8.0531163 -0.144977E-01  0.212E+00    0.13       1.0  T
 105     -8.0251080  0.280083E-01  0.213E+00    0.13       1.0  T
 106     -8.0531007 -0.279927E-01  0.184E+00    0.13       1.0  T
 107     -8.0480725  0.502819E-02  0.182E+00    0.13       1.0  T
 108     -8.0541421 -0.606954E-02  0.175E+00    0.13       1.0  T
 109     -8.0418223  0.123197E-01  0.184E+00    0.13       1.0  T
 110     -8.0321424  0.967995E-02  0.197E+00    0.14       1.0  T
 111     -8.0369386 -0.479619E-02  0.187E+00    0.14       1.0  T
 112     -8.0480698 -0.111313E-01  0.164E+00    0.13       1.0  T
 113     -8.0634193 -0.153495E-01  0.142E+00    0.13       1.0  T
 114     -8.0675767 -0.415739E-02  0.137E+00    0.13       1.0  T
 115     -8.0671704  0.406334E-03  0.130E+00    0.13       1.0  T
 116     -8.0717449 -0.457451E-02  0.114E+00    0.13       1.0  T
 117     -8.0876642 -0.159193E-01  0.119E+00    0.14       1.0  T
 118     -8.0908255 -0.316131E-02  0.173E+00    0.15       1.0  T
 119     -8.0885643  0.226119E-02  0.207E+00    0.17       1.0  T
 120     -8.0887306 -0.166273E-03  0.199E+00    0.16       1.0  T
 121     -8.0856687  0.306185E-02  0.822E-01    0.13       1.0  T
 122     -8.0833361  0.233268E-02  0.775E-01    0.13       1.0  T
 123     -8.0916606 -0.832453E-02  0.115E+00    0.14       1.0  T
 124     -8.0917509 -0.903131E-04  0.106E+00    0.14       1.0  T
 125     -8.0911196  0.631251E-03  0.152E+00    0.16       1.0  T
 126     -8.0911935 -0.738217E-04  0.132E+00    0.15       1.0  T
 127     -8.0916710 -0.477516E-03  0.118E+00    0.15       1.0  T
 128     -8.0925166 -0.845640E-03  0.944E-01    0.15       1.0  T
 129     -8.0928764 -0.359822E-03  0.885E-01    0.14       1.0  T
 130     -8.0932190 -0.342511E-03  0.813E-01    0.14       1.0  T
 131     -8.0933082 -0.892188E-04  0.910E-01    0.15       1.0  T
 132     -8.0930479  0.260303E-03  0.938E-01    0.15       1.0  T
 133     -8.0930039  0.439442E-04  0.903E-01    0.15       1.0  T
 134     -8.0937042 -0.700286E-03  0.649E-01    0.15       1.0  T
 135     -8.0938845 -0.180277E-03  0.513E-01    0.14       1.0  T
 136     -8.0939742 -0.896900E-04  0.495E-01    0.14       1.0  T
 137     -8.0940999 -0.125695E-03  0.572E-01    0.14       1.0  T
 138     -8.0940805  0.193543E-04  0.625E-01    0.15       1.0  T
 139     -8.0940771  0.339450E-05  0.624E-01    0.15       1.0  T
 140     -8.0941394 -0.622277E-04  0.564E-01    0.15       1.0  T
 141     -8.0941742 -0.348762E-04  0.513E-01    0.15       1.0  T
 142     -8.0941843 -0.100625E-04  0.487E-01    0.15       1.0  T
 143     -8.0941896 -0.535412E-05  0.469E-01    0.15       1.0  T
 144     -8.0941943 -0.464923E-05  0.439E-01    0.15       1.0  T
 145     -8.0941945 -0.190950E-06  0.396E-01    0.15       1.0  T
 146     -8.0941867  0.774826E-05  0.348E-01    0.14       1.0  T
 147     -8.0941766  0.101706E-04  0.306E-01    0.14       1.0  T
 148     -8.0941744  0.220474E-05  0.272E-01    0.14       1.0  T
 149     -8.0941858 -0.114418E-04  0.246E-01    0.14       1.0  T
 150     -8.0942070 -0.211741E-04  0.223E-01    0.14       1.0  T
 151     -8.0942241 -0.171333E-04  0.201E-01    0.15       1.0  T
 152     -8.0942310 -0.686765E-05  0.176E-01    0.15       1.0  T
 153     -8.0942315 -0.530168E-06  0.147E-01    0.15       1.0  T
 154     -8.0942305  0.996376E-06  0.122E-01    0.15       1.0  T
 155     -8.0942316 -0.112499E-05  0.106E-01    0.15       1.0  T
 156     -8.0942348 -0.320225E-05  0.969E-02    0.15       1.0  T
 157     -8.0942374 -0.254112E-05  0.880E-02    0.15       1.0  T
 158     -8.0942388 -0.138630E-05  0.680E-02    0.15       1.0  T
 159     -8.0942394 -0.612056E-06  0.458E-02    0.15       1.0  T
 160     -8.0942396 -0.234076E-06  0.321E-02    0.15       1.0  T
 161     -8.0942401 -0.442384E-06  0.245E-02    0.15       1.4  T
 162     -8.0942404 -0.302739E-06  0.173E-02    0.15       1.9  T
 163     -8.0942405 -0.160688E-06  0.769E-03    0.15       4.3  T
 164     -8.0942394  0.115128E-05  0.127E-02    0.15       2.6  T
 165     -8.0942390  0.333601E-06  0.127E-02    0.15       2.6  T
 166     -8.0942403 -0.129788E-05  0.421E-03    0.15       7.9  T
 167     -8.0942406 -0.221212E-06  0.530E-03    0.15       6.3  T
 168     -8.0942406 -0.267645E-07  0.203E-03    0.15      16.4  T
 169     -8.0942406  0.914697E-08  0.129E-03    0.15      25.8  T
 170     -8.0942406 -0.155196E-07  0.127E-03    0.15      26.2  T
 171     -8.0942406 -0.404428E-08  0.270E-04    0.15     123.5  T
 172     -8.0942406 -0.500073E-09  0.103E-04    0.15     323.0  T

   *** convergence criteria satisfied after 172 iterations ***

         #    Occupation            Energy/Eh            Energy/eV
      -------------------------------------------------------------
         1        2.0000           -0.5742381             -15.6258
       ...           ...                  ...                  ...
         4        2.0000           -0.3386276              -9.2145
         5        2.0000           -0.3128374              -8.5127
         6        2.0000           -0.2916868              -7.9372
         7        2.0000           -0.2699513              -7.3457
         8        2.0000           -0.2645254              -7.1981
         9        2.0000           -0.2210807              -6.0159
        10        0.9442           -0.1957020              -5.3253 (HOMO)
        11        0.0558           -0.1903284              -5.1791 (LUMO)
        12        0.0000           -0.1786876              -4.8623
        13                         -0.1500105              -4.0820
        14                         -0.1444418              -3.9305
        15                         -0.1177805              -3.2050
       ...                                ...                  ...
        24                          0.5404174              14.7055
      -------------------------------------------------------------
                  HL-Gap            0.0053737 Eh            0.1462 eV
             Fermi-level           -0.2007041 Eh           -5.4614 eV

 SCC (total)                   0 d,  0 h,  0 min,  0.070 sec
 SCC setup                      ...        0 min,  0.000 sec (  0.086%)
 Dispersion                     ...        0 min,  0.000 sec (  0.156%)
 classical contributions        ...        0 min,  0.000 sec (  0.180%)
 integral evaluation            ...        0 min,  0.000 sec (  0.180%)
 iterations                     ...        0 min,  0.070 sec ( 98.867%)
 molecular gradient             ...        0 min,  0.000 sec (  0.464%)
 printout                       ...        0 min,  0.000 sec (  0.045%)

         :::::::::::::::::::::::::::::::::::::::::::::::::::::
         ::                     SUMMARY                     ::
         :::::::::::::::::::::::::::::::::::::::::::::::::::::
         :: total energy              -8.035195688167 Eh    ::
         :: gradient norm              0.302767717409 Eh/a0 ::
         :: HOMO-LUMO gap              0.146225072260 eV    ::
         ::.................................................::
         :: SCC energy                -8.094240592353 Eh    ::
         :: -> isotropic ES           -0.025913217310 Eh    ::
         :: -> anisotropic ES          0.002955818201 Eh    ::
         :: -> anisotropic XC         -0.028482660622 Eh    ::
         :: -> dispersion             -0.006240911934 Eh    ::
         :: repulsion energy           0.059054437436 Eh    ::
         :: add. restraining           0.000000000000 Eh    ::
         :: total charge               0.000000000000 e     ::
         :::::::::::::::::::::::::::::::::::::::::::::::::::::

      ----------------------------------------------------------- 
     |                   =====================                   |
     |                        A N C O P T                        |
     |                   =====================                   |
     |               Approximate Normal Coordinate               |
     |                Rational Function Optimizer                |
      ----------------------------------------------------------- 

          ...................................................
          :                      SETUP                      :
          :.................................................:
          :   optimization level            normal          :
          :   max. optcycles                   200          :
          :   ANC micro-cycles                  20          :
          :   degrees of freedom                21          :
          :.................................................:
          :   RF solver                   davidson          :
          :   write xtbopt.log                true          :
          :   linear?                        false          :
          :   energy convergence         0.5000000E-05 Eh   :
          :   grad. convergence          0.1000000E-02 Eh/α :
          :   maximium RF displ.         1.0000000          :
          :   Hlow (freq-cutoff)         0.1000000E-01      :
          :   Hmax (freq-cutoff)         5.0000000          :
          :   S6 in model hess.         20.0000000          :
          ...................................................

generating ANC from model Hessian ...
Using Lindh-Hessian (1995)
 Shifting diagonal of input Hessian by    1.1911961143477886E-002
 Lowest  eigenvalues of input Hessian
    0.010000    0.011900    0.000000    0.000000    0.000000    0.000000
    0.000000    0.000000    0.011988    0.012542    0.012771    0.014638
    0.015721    0.023291    0.030153    0.033486    0.038470    0.057701
 Highest eigenvalues
    0.206197    0.253129    0.287778    0.314385    0.389825    0.524995


........................................................................
.............................. CYCLE    1 ..............................
........................................................................
   1     -8.0942406 -0.809424E+01  0.144E-04    0.15       0.0  T
   2     -8.0942406  0.758736E-08  0.110E-03    0.15      30.2  T
   3     -8.0942406  0.633138E-08  0.166E-03    0.15      20.1  T
   4     -8.0942406  0.623999E-09  0.172E-03    0.15      19.4  T
   5     -8.0942406 -0.144878E-07  0.791E-05    0.15     421.2  T
   6     -8.0942406 -0.656595E-10  0.432E-05    0.15     772.2  T
     SCC iter.                  ...        0 min,  0.001 sec
     gradient                   ...        0 min,  0.001 sec
 * total energy  :    -8.0351957 Eh     change       -0.1329248E-10 Eh
   gradient norm :     0.3022150 Eh/α   predicted     0.0000000E+00 (-100.00%)
   displ. norm   :     0.7827466 α      lambda       -0.2166472E+00
   maximum displ.:     0.3178591 α      in ANC's #8, #17, #13, ...

........................................................................
.............................. CYCLE    2 ..............................
........................................................................
   1     -8.0586801 -0.805868E+01  0.605E+00    0.60       0.0  T
   2     12.9351536  0.209938E+02  0.213E+01    0.57       1.0  T
   3     -7.8504042 -0.207856E+02  0.519E+00    0.35       1.0  T
   4     -6.5656844  0.128472E+01  0.176E+01    0.17       1.0  T
   5     -8.0885888 -0.152290E+01  0.378E+00    0.46       1.0  T
   6     -7.9950669  0.935220E-01  0.465E+00    0.56       1.0  T
   7     -8.0035181 -0.845122E-02  0.440E+00    0.60       1.0  T
   8     -8.0370087 -0.334907E-01  0.374E+00    0.36       1.0  T
   9     -8.0789360 -0.419273E-01  0.284E+00    0.43       1.0  T
  10     -8.1312977 -0.523616E-01  0.200E+00    0.34       1.0  T
  11     -8.1310655  0.232155E-03  0.200E+00    0.34       1.0  T
  12     -8.2261858 -0.951203E-01  0.314E+00    0.21       1.0  T
  13     -8.2220281  0.415774E-02  0.210E+00    0.22       1.0  T
  14     -8.2271438 -0.511569E-02  0.300E+00    0.21       1.0  T
  15     -8.2282204 -0.107660E-02  0.277E+00    0.21       1.0  T
  16     -8.2285317 -0.311350E-03  0.251E+00    0.21       1.0  T
  17     -8.2290227 -0.490962E-03  0.214E+00    0.21       1.0  T
  18     -8.2291859 -0.163214E-03  0.161E+00    0.21       1.0  T
  19     -8.2293993 -0.213392E-03  0.130E+00    0.21       1.0  T
  20     -8.2293526  0.466492E-04  0.692E-01    0.20       1.0  T
  21     -8.2295045 -0.151846E-03  0.467E-01    0.20       1.0  T
  22     -8.2296505 -0.145991E-03  0.195E-01    0.20       1.0  T
  23     -8.2296890 -0.385297E-04  0.362E-02    0.20       1.0  T
  24     -8.2296899 -0.873501E-06  0.151E-02    0.20       2.2  T
  25     -8.2296901 -0.220848E-06  0.279E-02    0.20       1.2  T
  26     -8.2296905 -0.380778E-06  0.153E-02    0.20       2.2  T
  27     -8.2296907 -0.230225E-06  0.350E-03    0.20       9.5  T
  28     -8.2296907 -0.794751E-08  0.425E-03    0.20       7.8  T
  29     -8.2296907 -0.185606E-07  0.111E-03    0.20      29.9  T
  30     -8.2296907 -0.178879E-10  0.828E-04    0.20      40.2  T
  31     -8.2296907 -0.575227E-09  0.588E-04    0.20      56.6  T
     SCC iter.                  ...        0 min,  0.004 sec
     gradient                   ...        0 min,  0.000 sec
 * total energy  :    -8.1868052 Eh     change       -0.1516095E+00 Eh
   gradient norm :     0.1921282 Eh/α   predicted    -0.1746927E+00 (  15.23%)
   displ. norm   :     0.7480698 α      lambda       -0.1346056E+00
   maximum displ.:     0.3787723 α      in ANC's #21, #20, #9, ...

........................................................................
.............................. CYCLE    3 ..............................
........................................................................
   1     -8.1577510 -0.815775E+01  0.579E+00    0.20       0.0  T
   2     -7.0180994  0.113965E+01  0.126E+01    0.98       1.0  T
   3     -8.1741636 -0.115606E+01  0.612E+00    0.36       1.0  T
   4     -8.2704582 -0.962947E-01  0.483E+00    0.27       1.0  T
   5     -8.2796115 -0.915326E-02  0.461E+00    0.14       1.0  T
   6     -8.2725064  0.710514E-02  0.441E+00    0.23       1.0  T
   7     -8.2706696  0.183679E-02  0.473E+00    0.18       1.0  T
   8     -8.3739454 -0.103276E+00  0.130E+00    0.08       1.0  T
   9     -8.3010478  0.728976E-01  0.404E+00    0.16       1.0  T
  10     -8.3342912 -0.332434E-01  0.306E+00    0.11       1.0  T
  11     -8.3329452  0.134603E-02  0.312E+00    0.11       1.0  T
  12     -8.3605268 -0.275816E-01  0.207E+00    0.08       1.0  T
  13     -8.3764618 -0.159349E-01  0.100E+00    0.07       1.0  T
  14     -8.3732436  0.321818E-02  0.129E+00    0.07       1.0  T
  15     -8.3794533 -0.620972E-02  0.557E-01    0.07       1.0  T
  16     -8.3800251 -0.571768E-03  0.423E-01    0.07       1.0  T
  17     -8.3807637 -0.738676E-03  0.150E-01    0.07       1.0  T
  18     -8.3807465  0.172415E-04  0.163E-01    0.07       1.0  T
  19     -8.3808516 -0.105070E-03  0.722E-02    0.07       1.0  T
  20     -8.3808604 -0.881188E-05  0.571E-02    0.07       1.0  T
  21     -8.3808757 -0.152786E-04  0.978E-03    0.07       3.4  T
  22     -8.3808761 -0.464008E-06  0.843E-04    0.07      39.5  T
  23     -8.3808760  0.130196E-06  0.524E-03    0.07       6.4  T
  24     -8.3808761 -0.134270E-06  0.210E-04    0.07     158.8  T
     SCC iter.                  ...        0 min,  0.005 sec
     gradient                   ...        0 min,  0.001 sec
 * total energy  :    -8.2765268 Eh     change       -0.8972156E-01 Eh
   gradient norm :     0.1663150 Eh/α   predicted    -0.1049660E+00 (  16.99%)
   displ. norm   :     0.7050895 α      lambda       -0.8298482E-01
   maximum displ.:     0.2782447 α      in ANC's #9, #1, #12, ...

........................................................................
.............................. CYCLE    4 ..............................
........................................................................
   1     -8.4167963 -0.841680E+01  0.300E+00    0.05       0.0  T
   2     -7.2644336  0.115236E+01  0.149E+01    0.47       1.0  T
   3     -8.2095263 -0.945093E+00  0.633E+00    0.46       1.0  T
   4     -8.3593068 -0.149780E+00  0.380E+00    0.16       1.0  T
   5     -8.3729443 -0.136375E-01  0.384E+00    0.19       1.0  T
   6     -8.3674888  0.545551E-02  0.372E+00    0.24       1.0  T
   7     -8.4346669 -0.671781E-01  0.104E+00    0.09       1.0  T
   8     -8.4037499  0.309171E-01  0.281E+00    0.09       1.0  T
   9     -8.4402979 -0.365481E-01  0.310E-01    0.08       1.0  T
  10     -8.4380929  0.220507E-02  0.761E-01    0.09       1.0  T
  11     -8.4398539 -0.176101E-02  0.412E-01    0.09       1.0  T
  12     -8.4278025  0.120513E-01  0.165E+00    0.11       1.0  T
  13     -8.4365640 -0.876144E-02  0.904E-01    0.10       1.0  T
  14     -8.4402697 -0.370573E-02  0.222E-01    0.09       1.0  T
  15     -8.4404550 -0.185294E-03  0.116E-01    0.09       1.0  T
  16     -8.4404073  0.476597E-04  0.160E-01    0.08       1.0  T
  17     -8.4405097 -0.102317E-03  0.608E-02    0.08       1.0  T
  18     -8.4405245 -0.148171E-04  0.227E-02    0.09       1.5  T
  19     -8.4405254 -0.935649E-06  0.177E-02    0.09       1.9  T
  20     -8.4405269 -0.144265E-05  0.243E-03    0.09      13.7  T
  21     -8.4405268  0.186240E-07  0.315E-03    0.09      10.6  T
  22     -8.4405268  0.287004E-07  0.395E-03    0.09       8.4  T
  23     -8.4405269 -0.650696E-07  0.116E-03    0.09      28.6  T
  24     -8.4405269 -0.997558E-09  0.111E-03    0.09      30.1  T
  25     -8.4405269 -0.559322E-08  0.517E-05    0.09     645.0  T
  26     -8.4405269  0.158717E-10  0.661E-05    0.09     504.2  T
     SCC iter.                  ...        0 min,  0.004 sec
     gradient                   ...        0 min,  0.001 sec
 * total energy  :    -8.3374999 Eh     change       -0.6097307E-01 Eh
   gradient norm :     0.0972530 Eh/α   predicted    -0.6212039E-01 (   1.88%)
   displ. norm   :     0.7555985 α      lambda       -0.5970097E-01
   maximum displ.:     0.3599950 α      in ANC's #1, #9, #16, ...

........................................................................
.............................. CYCLE    5 ..............................
........................................................................
   1     -8.3328341 -0.833283E+01  0.623E+00    0.28       0.0  T
   2     13.0474277  0.213803E+02  0.227E+01    1.14       1.0  T
   3     -3.9796313 -0.170271E+02  0.147E+01    0.09       1.0  T
   4     -8.2672592 -0.428763E+01  0.695E+00    0.17       1.0  T
   5     -8.3042793 -0.370201E-01  0.610E+00    0.65       1.0  T
   6     -8.3060375 -0.175824E-02  0.599E+00    0.68       1.0  T
   7     -8.3024550  0.358249E-02  0.589E+00    0.69       1.0  T
   8     -8.2474858  0.549692E-01  0.577E+00    0.77       1.0  T
   9     -8.2611648 -0.136790E-01  0.515E+00    0.80       1.0  T
  10     -8.2192222  0.419426E-01  0.513E+00    0.84       1.0  T
  11     -8.2529255 -0.337033E-01  0.335E+00    0.85       1.0  T
  12     -8.3014378 -0.485123E-01  0.308E+00    0.81       1.0  T
  13     -8.3147441 -0.133063E-01  0.301E+00    0.79       1.0  T
  14     -8.3458997 -0.311555E-01  0.230E+00    0.72       1.0  T
  15     -8.4567786 -0.110879E+00  0.152E+00    0.12       1.0  T
  16     -8.4244223  0.323563E-01  0.126E+00    0.19       1.0  T
  17     -8.3966109  0.278114E-01  0.150E+00    0.33       1.0  T
  18     -8.3895748  0.703610E-02  0.155E+00    0.39       1.0  T
  19     -8.4015347 -0.119599E-01  0.154E+00    0.31       1.0  T
  20     -8.3777819  0.237527E-01  0.169E+00    0.50       1.0  T
  21     -8.2620673  0.115715E+00  0.903E+00    0.70       1.0  T
  22     -8.2650367 -0.296939E-02  0.862E+00    0.73       1.0  T
  23     -8.2669690 -0.193229E-02  0.859E+00    0.71       1.0  T
  24     -8.4801918 -0.213223E+00  0.197E+00    0.08       1.0  T
  25     -8.3483194  0.131872E+00  0.728E+00    0.20       1.0  T
  26     -8.4566407 -0.108321E+00  0.427E+00    0.09       1.0  T
  27     -8.4173275  0.393132E-01  0.218E+00    0.19       1.0  T
  28     -8.4591080 -0.417805E-01  0.131E+00    0.11       1.0  T
  29     -8.4699952 -0.108871E-01  0.106E+00    0.09       1.0  T
  30     -8.4667775  0.321762E-02  0.116E+00    0.10       1.0  T
  31     -8.4647080  0.206949E-02  0.124E+00    0.10       1.0  T
  32     -8.4622403  0.246774E-02  0.126E+00    0.10       1.0  T
  33     -8.4700714 -0.783111E-02  0.846E-01    0.10       1.0  T
  34     -8.4690360  0.103543E-02  0.838E-01    0.10       1.0  T
  35     -8.4859086 -0.168726E-01  0.928E-01    0.06       1.0  T
  36     -8.4550787  0.308299E-01  0.163E+00    0.11       1.0  T
  37     -8.4568014 -0.172272E-02  0.315E+00    0.08       1.0  T
  38     -8.4189895  0.378120E-01  0.276E+00    0.18       1.0  T
  39     -8.4354900 -0.165006E-01  0.366E+00    0.10       1.0  T
  40     -8.4360187 -0.528692E-03  0.251E+00    0.15       1.0  T
  41     -8.4402666 -0.424790E-02  0.350E+00    0.10       1.0  T
  42     -8.4602321 -0.199655E-01  0.180E+00    0.11       1.0  T
  43     -8.4736302 -0.133981E-01  0.208E+00    0.08       1.0  T
  44     -8.4721175  0.151270E-02  0.127E+00    0.10       1.0  T
  45     -8.4857251 -0.136076E-01  0.797E-01    0.08       1.0  T
  46     -8.4798801  0.584501E-02  0.793E-01    0.09       1.0  T
  47     -8.4861689 -0.628878E-02  0.333E-01    0.08       1.0  T
  48     -8.4837770  0.239190E-02  0.448E-01    0.09       1.0  T
  49     -8.4860471 -0.227015E-02  0.250E-01    0.08       1.0  T
  50     -8.4851743  0.872814E-03  0.289E-01    0.08       1.0  T
  51     -8.4862138 -0.103951E-02  0.246E-01    0.08       1.0  T
  52     -8.4858186  0.395186E-03  0.205E-01    0.09       1.0  T
  53     -8.4862657 -0.447067E-03  0.287E-01    0.08       1.0  T
  54     -8.4862081  0.575763E-04  0.125E-01    0.09       1.0  T
  55     -8.4860332  0.174936E-03  0.309E-01    0.09       1.0  T
  56     -8.4863036 -0.270383E-03  0.733E-02    0.09       1.0  T
  57     -8.4860000  0.303628E-03  0.258E-01    0.09       1.0  T
  58     -8.4862776 -0.277603E-03  0.756E-02    0.09       1.0  T
  59     -8.4861600  0.117582E-03  0.166E-01    0.09       1.0  T
  60     -8.4862858 -0.125853E-03  0.598E-02    0.09       1.0  T
  61     -8.4862675  0.183273E-04  0.846E-02    0.09       1.0  T
  62     -8.4863050 -0.374538E-04  0.230E-02    0.09       1.5  T
  63     -8.4863031  0.188604E-05  0.282E-02    0.09       1.2  T
  64     -8.4863075 -0.445293E-05  0.103E-02    0.09       3.2  T
  65     -8.4863074  0.761629E-07  0.674E-03    0.09       4.9  T
  66     -8.4863073  0.174318E-06  0.109E-02    0.09       3.0  T
  67     -8.4863075 -0.279359E-06  0.249E-03    0.09      13.4  T
  68     -8.4863075  0.105041E-07  0.378E-03    0.09       8.8  T
  69     -8.4863075 -0.326128E-08  0.323E-03    0.09      10.3  T
  70     -8.4863075  0.205662E-07  0.317E-03    0.09      10.5  T
  71     -8.4863075 -0.188028E-07  0.178E-03    0.09      18.8  T
  72     -8.4863075  0.374277E-09  0.175E-03    0.09      19.1  T
  73     -8.4863075 -0.104820E-07  0.315E-04    0.09     105.8  T
  74     -8.4863075 -0.731605E-09  0.148E-04    0.09     225.6  T
     SCC iter.                  ...        0 min,  0.016 sec
     gradient                   ...        0 min,  0.001 sec
 * total energy  :    -8.3881787 Eh     change       -0.5067885E-01 Eh
   gradient norm :     0.0967420 Eh/α   predicted    -0.4689301E-01 (  -7.47%)
   displ. norm   :     0.9048348 α      lambda       -0.6640740E-01
   maximum displ.:     0.3836232 α      in ANC's #16, #1, #9, ...

........................................................................
.............................. CYCLE    6 ..............................
........................................................................
   1     -8.4565235 -0.845652E+01  0.546E+00    0.32       0.0  T
   2     10.9814961  0.194380E+02  0.219E+01    1.08       1.0  T
   3     -4.6218742 -0.156034E+02  0.150E+01    0.06       1.0  T
   4     -8.2143664 -0.359249E+01  0.834E+00    0.53       1.0  T
   5     -7.4208545  0.793512E+00  0.142E+01    0.38       1.0  T
   6     -8.2147426 -0.793888E+00  0.791E+00    0.59       1.0  T
   7     -7.9494440  0.265299E+00  0.945E+00    0.64       1.0  T
   8     -7.9350179  0.144262E-01  0.955E+00    0.64       1.0  T
   9     -7.9137990  0.212189E-01  0.975E+00    0.63       1.0  T
  10     -7.9957098 -0.819109E-01  0.868E+00    0.67       1.0  T
  11     -7.9854051  0.103047E-01  0.884E+00    0.66       1.0  T
  12     -8.0759800 -0.905749E-01  0.750E+00    0.70       1.0  T
  13     -8.1400270 -0.640470E-01  0.975E+00    0.74       1.0  T
  14     -7.9461451  0.193882E+00  0.220E+01    0.97       1.0  T
  15     -7.7139792  0.232166E+00  0.218E+01    1.02       1.0  T
  16     -8.1094557 -0.395477E+00  0.216E+01    0.87       1.0  T
  17     -8.1301481 -0.206924E-01  0.129E+01    0.87       1.0  T
  18     -8.3215676 -0.191419E+00  0.110E+01    0.69       1.0  T
  19     -8.3905568 -0.689892E-01  0.827E+00    0.58       1.0  T
  20     -8.4116130 -0.210562E-01  0.418E+00    0.46       1.0  T
  21     -8.4839305 -0.723174E-01  0.259E+00    0.25       1.0  T
  22     -8.4872184 -0.328794E-02  0.246E+00    0.25       1.0  T
  23     -8.4856337  0.158467E-02  0.220E+00    0.26       1.0  T
  24     -8.4887560 -0.312227E-02  0.200E+00    0.26       1.0  T
  25     -8.5188458 -0.300898E-01  0.131E+00    0.24       1.0  T
  26     -8.5330882 -0.142424E-01  0.127E+00    0.23       1.0  T
  27     -8.5330859  0.231405E-05  0.127E+00    0.23       1.0  T
  28     -8.5336689 -0.583067E-03  0.140E+00    0.23       1.0  T
  29     -8.5316797  0.198926E-02  0.143E+00    0.23       1.0  T
  30     -8.5380019 -0.632217E-02  0.892E-01    0.23       1.0  T
  31     -8.5440247 -0.602283E-02  0.548E-01    0.22       1.0  T
  32     -8.5438790  0.145672E-03  0.505E-01    0.22       1.0  T
  33     -8.5449227 -0.104368E-02  0.536E-01    0.22       1.0  T
  34     -8.5450328 -0.110109E-03  0.509E-01    0.21       1.0  T
  35     -8.5450003  0.325146E-04  0.459E-01    0.21       1.0  T
  36     -8.5450374 -0.371621E-04  0.415E-01    0.21       1.0  T
  37     -8.5450623 -0.248368E-04  0.354E-01    0.21       1.0  T
  38     -8.5451189 -0.565927E-04  0.265E-01    0.21       1.0  T
  39     -8.5451535 -0.345791E-04  0.186E-01    0.21       1.0  T
  40     -8.5451695 -0.160439E-04  0.120E-01    0.21       1.0  T
  41     -8.5451786 -0.905720E-05  0.659E-02    0.21       1.0  T
  42     -8.5451849 -0.631306E-05  0.254E-02    0.21       1.3  T
  43     -8.5451881 -0.324546E-05  0.248E-02    0.21       1.3  T
  44     -8.5451887 -0.594802E-06  0.299E-02    0.21       1.1  T
  45     -8.5451890 -0.338157E-06  0.181E-02    0.21       1.8  T
  46     -8.5451891 -0.527356E-07  0.517E-03    0.21       6.4  T
  47     -8.5451891 -0.120591E-07  0.244E-03    0.21      13.6  T
  48     -8.5451891 -0.922287E-08  0.157E-03    0.21      21.3  T
  49     -8.5451891 -0.164538E-08  0.121E-03    0.21      27.5  T
  50     -8.5451891 -0.111921E-08  0.619E-04    0.21      53.9  T
  51     -8.5451891 -0.180072E-08  0.187E-04    0.21     178.4  T
     SCC iter.                  ...        0 min,  0.025 sec
     gradient                   ...        0 min,  0.001 sec
 * total energy  :    -8.4357863 Eh     change       -0.4760762E-01 Eh
   gradient norm :     0.0829477 Eh/α   predicted    -0.6038844E-01 (  26.85%)
   displ. norm   :     0.7344261 α      lambda       -0.4255195E-01
   maximum displ.:     0.4302464 α      in ANC's #1, #14, #16, ...

........................................................................
.............................. CYCLE    7 ..............................
........................................................................
   1     -8.5337870 -0.853379E+01  0.362E+00    0.23       0.0  T
   2      2.5444059  0.110782E+02  0.172E+01    0.81       1.0  T
   3     -8.4126055 -0.109570E+02  0.464E+00    0.99       1.0  T
   4     -8.4155808 -0.297529E-02  0.474E+00    0.97       1.0  T
   5     -8.2994174  0.116163E+00  0.423E+00    1.56       1.0  T
   6     -8.3757754 -0.763580E-01  0.239E+00    1.37       1.0  T
   7     -8.3923411 -0.165657E-01  0.226E+00    0.90       1.0  T
   8     -8.4094014 -0.170603E-01  0.209E+00    0.97       1.0  T
   9     -8.4197073 -0.103059E-01  0.205E+00    0.89       1.0  T
  10     -8.4183318  0.137548E-02  0.207E+00    0.90       1.0  T
  11     -8.3961231  0.222087E-01  0.221E+00    1.03       1.0  T
  12     -8.4127874 -0.166643E-01  0.209E+00    0.93       1.0  T
  13     -8.5228520 -0.110065E+00  0.125E+00    0.33       1.0  T
  14     -8.5419604 -0.191084E-01  0.124E+00    0.26       1.0  T
  15     -8.5385560  0.340436E-02  0.123E+00    0.27       1.0  T
  16     -8.5228992  0.156568E-01  0.124E+00    0.33       1.0  T
  17     -8.5385069 -0.156077E-01  0.122E+00    0.27       1.0  T
  18     -8.5288155  0.969134E-02  0.121E+00    0.31       1.0  T
  19     -8.5288164 -0.860305E-06  0.121E+00    0.31       1.0  T
  20     -8.5464748 -0.176584E-01  0.101E+00    0.26       1.0  T
  21     -8.5210692  0.254056E-01  0.119E+00    0.37       1.0  T
  22     -8.2555953  0.265474E+00  0.592E+00    0.14       1.0  T
  23     -8.1929351  0.626602E-01  0.644E+00    0.13       1.0  T
  24     -8.2740492 -0.811141E-01  0.591E+00    0.14       1.0  T
  25     -8.2673698  0.667941E-02  0.595E+00    0.14       1.0  T
  26     -8.2876475 -0.202778E-01  0.579E+00    0.14       1.0  T
  27     -8.3267276 -0.390801E-01  0.539E+00    0.12       1.0  T
  28     -8.3303416 -0.361396E-02  0.536E+00    0.12       1.0  T
  29     -8.5184770 -0.188135E+00  0.287E+00    0.15       1.0  T
  30     -8.5139923  0.448467E-02  0.320E+00    0.12       1.0  T
  31     -8.4987016  0.152907E-01  0.347E+00    0.12       1.0  T
  32     -8.5001971 -0.149549E-02  0.344E+00    0.12       1.0  T
  33     -8.5480964 -0.478993E-01  0.213E+00    0.15       1.0  T
  34     -8.5579682 -0.987182E-02  0.169E+00    0.16       1.0  T
  35     -8.5684544 -0.104862E-01  0.764E-01    0.21       1.0  T
  36     -8.5684732 -0.187851E-04  0.880E-01    0.20       1.0  T
  37     -8.5686534 -0.180190E-03  0.815E-01    0.20       1.0  T
  38     -8.5686666 -0.131619E-04  0.781E-01    0.21       1.0  T
  39     -8.5683174  0.349209E-03  0.724E-01    0.22       1.0  T
  40     -8.5680412  0.276188E-03  0.720E-01    0.23       1.0  T
  41     -8.5679769  0.642909E-04  0.703E-01    0.24       1.0  T
  42     -8.5686496 -0.672694E-03  0.541E-01    0.23       1.0  T
  43     -8.5654093  0.324026E-02  0.756E-01    0.21       1.0  T
  44     -8.5645331  0.876263E-03  0.846E-01    0.20       1.0  T
  45     -8.5633411  0.119196E-02  0.862E-01    0.20       1.0  T
  46     -8.5631502  0.190867E-03  0.871E-01    0.20       1.0  T
  47     -8.5621802  0.970051E-03  0.922E-01    0.20       1.0  T
  48     -8.5623037 -0.123566E-03  0.888E-01    0.19       1.0  T
  49     -8.5622089  0.948197E-04  0.861E-01    0.19       1.0  T
  50     -8.5635290 -0.132004E-02  0.768E-01    0.19       1.0  T
  51     -8.5637680 -0.239069E-03  0.718E-01    0.17       1.0  T
  52     -8.5637470  0.209812E-04  0.700E-01    0.16       1.0  T
  53     -8.5637016  0.454158E-04  0.703E-01    0.16       1.0  T
  54     -8.5652123 -0.151069E-02  0.596E-01    0.14       1.0  T
  55     -8.5662915 -0.107919E-02  0.503E-01    0.14       1.0  T
  56     -8.5633843  0.290717E-02  0.641E-01    0.10       1.0  T
  57     -8.5631438  0.240501E-03  0.659E-01    0.10       1.0  T
  58     -8.5637344 -0.590555E-03  0.614E-01    0.09       1.0  T
  59     -8.5632743  0.460064E-03  0.642E-01    0.09       1.0  T
  60     -8.5629433  0.331043E-03  0.667E-01    0.08       1.0  T
  61     -8.5626605  0.282828E-03  0.697E-01    0.08       1.0  T
  62     -8.5627295 -0.690205E-04  0.693E-01    0.08       1.0  T
  63     -8.5639903 -0.126083E-02  0.615E-01    0.08       1.0  T
  64     -8.5666520 -0.266164E-02  0.409E-01    0.08       1.0  T
  65     -8.5671503 -0.498385E-03  0.374E-01    0.08       1.0  T
  66     -8.5662728  0.877511E-03  0.544E-01    0.06       1.0  T
  67     -8.5672236 -0.950752E-03  0.443E-01    0.06       1.0  T
  68     -8.5663223  0.901323E-03  0.580E-01    0.06       1.0  T
  69     -8.5664620 -0.139734E-03  0.573E-01    0.05       1.0  T
  70     -8.5664506  0.113910E-04  0.573E-01    0.05       1.0  T
  71     -8.5676652 -0.121464E-02  0.360E-01    0.07       1.0  T
  72     -8.5672268  0.438477E-03  0.390E-01    0.08       1.0  T
  73     -8.5673892 -0.162483E-03  0.371E-01    0.09       1.0  T
  74     -8.5673392  0.500084E-04  0.378E-01    0.09       1.0  T
  75     -8.5673822 -0.429124E-04  0.373E-01    0.09       1.0  T
  76     -8.5674595 -0.773397E-04  0.365E-01    0.09       1.0  T
  77     -8.5674854 -0.259456E-04  0.367E-01    0.09       1.0  T
  78     -8.5675008 -0.153240E-04  0.368E-01    0.09       1.0  T
  79     -8.5674961  0.470937E-05  0.367E-01    0.09       1.0  T
  80     -8.5675237 -0.276789E-04  0.361E-01    0.09       1.0  T
  81     -8.5677057 -0.181990E-03  0.331E-01    0.09       1.0  T
  82     -8.5679727 -0.266980E-03  0.284E-01    0.09       1.0  T
  83     -8.5681551 -0.182432E-03  0.246E-01    0.09       1.0  T
  84     -8.5682820 -0.126884E-03  0.212E-01    0.08       1.0  T
  85     -8.5684043 -0.122233E-03  0.165E-01    0.08       1.0  T
  86     -8.5685003 -0.960867E-04  0.113E-01    0.07       1.0  T
  87     -8.5685411 -0.407538E-04  0.107E-01    0.06       1.0  T
  88     -8.5685460 -0.487196E-05  0.133E-01    0.06       1.0  T
  89     -8.5685491 -0.312650E-05  0.150E-01    0.06       1.0  T
  90     -8.5685484  0.658530E-06  0.151E-01    0.06       1.0  T
  91     -8.5684673  0.811790E-04  0.112E-01    0.06       1.0  T
  92     -8.5685720 -0.104777E-03  0.121E-01    0.07       1.0  T
  93     -8.5683796  0.192448E-03  0.140E-01    0.07       1.0  T
  94     -8.5685796 -0.200008E-03  0.108E-01    0.08       1.0  T
  95     -8.5684749  0.104664E-03  0.111E-01    0.08       1.0  T
  96     -8.5685601 -0.851774E-04  0.111E-01    0.09       1.0  T
  97     -8.5685155  0.445741E-04  0.141E-01    0.09       1.0  T
  98     -8.5685072  0.835937E-05  0.154E-01    0.10       1.0  T
  99     -8.5685189 -0.116909E-04  0.138E-01    0.09       1.0  T
 100     -8.5685223 -0.341069E-05  0.110E-01    0.09       1.0  T
 101     -8.5685133  0.895466E-05  0.907E-02    0.08       1.0  T
 102     -8.5685075  0.581021E-05  0.847E-02    0.07       1.0  T
 103     -8.5684951  0.123664E-04  0.920E-02    0.06       1.0  T
 104     -8.5684905  0.460350E-05  0.958E-02    0.06       1.0  T
 105     -8.5684955 -0.492410E-05  0.927E-02    0.06       1.0  T
 106     -8.5685102 -0.147839E-04  0.836E-02    0.07       1.0  T
 107     -8.5685212 -0.109485E-04  0.810E-02    0.07       1.0  T
 108     -8.5682315  0.289741E-03  0.213E-01    0.10       1.0  T
 109     -8.5594638  0.876761E-02  0.966E-01    0.16       1.0  T
 110     -8.3003688  0.259095E+00  0.598E+00    0.57       1.0  T
 111      1.1131302  0.941350E+01  0.334E+01    0.64       1.0  T
 112     -8.3475992 -0.946073E+01  0.747E+00    0.15       1.0  T
 113      2.2175476  0.105651E+02  0.513E+01    0.53       1.0  T
 114     23.1797178  0.209622E+02  0.332E+02    0.37       1.0  T
 115     -6.7507740 -0.299305E+02  0.366E+01    1.36       1.0  T
 116     32.8282484  0.395790E+02  0.272E+03    7.49       1.0  T
 117     35.0790261  0.225078E+01  0.649E+03   22.84       1.0  T
 118     37.7771292  0.269810E+01  0.588E+03    5.81       1.0  T
 119     32.7684443 -0.500868E+01  0.114E+04   36.72       1.0  T
 120     44.3214820  0.115530E+02  0.176E+04   14.30       1.0  T
 121     44.6945629  0.373081E+00  0.172E+04   12.44       1.0  T
 122     45.8310559  0.113649E+01  0.236E+04   68.74       1.0  T
 123     62.1942078  0.163632E+02  0.195E+04  577.39       1.0  T
 124     38.0866121 -0.241076E+02  0.101E+04 1499.15       1.0  T
 125     51.8278749  0.137413E+02  0.173E+04 3148.36       1.0  T
 126     50.5315631 -0.129631E+01  0.164E+04  144.57       1.0  T
 127     47.9339785 -0.259758E+01  0.103E+04 1984.95       1.0  T
 128     61.3287865  0.133948E+02  0.151E+04  204.09       1.0  T
 129     61.3505163  0.217298E-01  0.181E+04  251.97       1.0  T
 130     61.3505235  0.719743E-05  0.181E+04  251.97       1.0  T
 131     61.3861358  0.356122E-01  0.206E+04  198.19       1.0  T
 132     48.5831658 -0.128030E+02  0.447E+03   20.40       1.0  T
 133     45.6544267 -0.292874E+01  0.329E+04  237.99       1.0  T
 134     42.9504934 -0.270393E+01  0.695E+04  237.79       1.0  T
 135     43.0507255  0.100232E+00  0.585E+04  462.57       1.0  T
 136     23.4225209 -0.196282E+02  0.176E+04  191.95       1.0  T
 137     35.2328653  0.118103E+02  0.655E+04 1442.90       1.0  T
 138     36.2520225  0.101916E+01  0.953E+04  466.39       1.0  T
 139     43.8742259  0.762220E+01  0.940E+04  193.16       1.0  T
 140     23.5218774 -0.203523E+02  0.135E+04 2451.26       1.0  T
 141     35.8599847  0.123381E+02  0.250E+04 3800.48       1.0  T
 142     44.7047966  0.884481E+01  0.449E+04  903.02       1.0  T
 143     52.1709422  0.746615E+01  0.160E+04  372.39       1.0  T
 144     40.2385222 -0.119324E+02  0.745E+03  105.08       1.0  T
 145     32.2771097 -0.796141E+01  0.135E+04   31.64       1.0  T
 146     45.6044441  0.133273E+02  0.120E+04   16.84       1.0  T
 147     37.5059821 -0.809846E+01  0.120E+04   15.61       1.0  T
 148     52.3983827  0.148924E+02  0.113E+03   24.02       1.0  T
 149     46.4110277 -0.598735E+01  0.989E+03  294.62       1.0  T
 150     63.3306072  0.169196E+02  0.282E+03   18.50       1.0  T
 151     46.8037466 -0.165269E+02  0.526E+03    9.06       1.0  T
 152     41.2618677 -0.554188E+01  0.790E+02    0.34       1.0  T
 153     36.0383455 -0.522352E+01  0.222E+03    5.38       1.0  T
 154     51.6690790  0.156307E+02  0.505E+03   58.76       1.0  T
 155     43.7970940 -0.787198E+01  0.552E+03  168.07       1.0  T
 156     48.2070416  0.440995E+01  0.237E+03   19.50       1.0  T
 157     47.3411069 -0.865935E+00  0.347E+03    9.75       1.0  T
 158     34.2649271 -0.130762E+02  0.478E+03   82.72       1.0  T
 159     42.9736749  0.870875E+01  0.299E+03   11.60       1.0  T
 160     46.0962059  0.312253E+01  0.886E+03   84.98       1.0  T
 161     18.1685131 -0.279277E+02  0.170E+03    5.08       1.0  T
 162     32.8455389  0.146770E+02  0.665E+03   35.22       1.0  T
 163     46.1555064  0.133100E+02  0.492E+03    5.05       1.0  T
 164     52.5436025  0.638810E+01  0.294E+03   16.41       1.0  T
 165     26.0538106 -0.264898E+02  0.810E+02    2.69       1.0  T
 166     41.5299282  0.154761E+02  0.292E+03    7.79       1.0  T
 167     23.9361471 -0.175938E+02  0.553E+02    0.85       1.0  T
 168     47.3741530  0.234380E+02  0.114E+03    1.41       1.0  T
 169     60.7012602  0.133271E+02  0.328E+03    1.66       1.0  T
 170     48.4275707 -0.122737E+02  0.150E+03    3.06       1.0  T
 171     60.4706354  0.120431E+02  0.221E+03    2.68       1.0  T
 172     28.1970503 -0.322736E+02  0.530E+02    1.98       1.0  T
 173     49.2175628  0.210205E+02  0.121E+03    1.06       1.0  T
 174     49.5415031  0.323940E+00  0.112E+03    1.59       1.0  T
 175     46.1302148 -0.341129E+01  0.198E+03    3.27       1.0  T
 176     29.4824636 -0.166478E+02  0.398E+02    0.56       1.0  T
 177     46.2756389  0.167932E+02  0.540E+03   94.38       1.0  T
 178     47.1003884  0.824750E+00  0.563E+03   64.98       1.0  T
 179     37.2262718 -0.987412E+01  0.692E+02    8.95       1.0  T
 180     32.3959461 -0.483033E+01  0.254E+03    4.79       1.0  T
 181     31.3167355 -0.107921E+01  0.231E+03    3.04       1.0  T
 182     28.3893532 -0.292738E+01  0.447E+02    4.19       1.0  T
 183     42.5330628  0.141437E+02  0.151E+03   18.20       1.0  T
 184     53.0388324  0.105058E+02  0.280E+03   32.39       1.0  T
 185     60.2754588  0.723663E+01  0.336E+03    2.96       1.0  T
 186     45.2536617 -0.150218E+02  0.245E+03   11.80       1.0  T
 187     37.8143043 -0.743936E+01  0.291E+03    3.62       1.0  T
 188     59.1503082  0.213360E+02  0.104E+03    1.28       1.0  T
 189     62.6577992  0.350749E+01  0.184E+03   10.93       1.0  T
 190     59.1164203 -0.354138E+01  0.171E+03    1.39       1.0  T
 191     29.8832784 -0.292331E+02  0.413E+02    0.36       1.0  T
 192     48.5264083  0.186431E+02  0.103E+03    1.91       1.0  T
 193     60.9597510  0.124333E+02  0.390E+03    3.79       1.0  T
 194     62.6971361  0.173739E+01  0.195E+03    3.00       1.0  T
 195     26.8240319 -0.358731E+02  0.151E+02    2.27       1.0  T
 196     62.9738982  0.361499E+02  0.279E+03    3.04       1.0  T
 197     32.8323875 -0.301415E+02  0.832E+02    1.40       1.0  T
 198     47.9471633  0.151148E+02  0.510E+03   53.32       1.0  T
 199     53.3697826  0.542262E+01  0.423E+03   91.45       1.0  T
 200     58.4614278  0.509165E+01  0.371E+03    4.37       1.0  T
 201     29.1097650 -0.293517E+02  0.206E+03    5.74       1.0  T
 202      0.8781516 -0.282316E+02  0.245E+03    5.08       1.0  T
 203     28.3093790  0.274312E+02  0.242E+03    4.76       1.0  T
 204     38.0581555  0.974878E+01  0.410E+03    1.91       1.0  T
 205     45.6257935  0.756764E+01  0.495E+03    3.71       1.0  T
 206     43.6119308 -0.201386E+01  0.241E+03    3.12       1.0  T
 207     58.3493172  0.147374E+02  0.171E+03    1.69       1.0  T
 208     30.1958392 -0.281535E+02  0.328E+02    2.05       1.0  T
 209     60.3560962  0.301603E+02  0.228E+03    1.68       1.0  T
 210     58.5650417 -0.179105E+01  0.132E+03    0.75       1.0  T
 211     29.4242224 -0.291408E+02  0.685E+02    3.31       1.0  T
 212     31.8832073  0.245898E+01  0.140E+02    0.99       1.0  T
 213     64.0451081  0.321619E+02  0.252E+03    4.74       1.0  T
 214     29.0436862 -0.350014E+02  0.107E+03    3.56       1.0  T
 215     29.2410565  0.197370E+00  0.168E+02    0.53       1.0  T
 216     48.3744076  0.191334E+02  0.129E+03    1.04       1.0  T
 217     27.7494452 -0.206250E+02  0.488E+02    1.45       1.0  T
 218     29.2843225  0.153488E+01  0.484E+02    2.69       1.0  T
 219     62.6801563  0.333958E+02  0.338E+03   61.95       1.0  T
 220     44.7049537 -0.179752E+02  0.187E+03    1.34       1.0  T
 221     29.5878362 -0.151171E+02  0.841E+02    0.97       1.0  T
 222     63.6099900  0.340222E+02  0.217E+03    5.02       1.0  T
 223     46.2862998 -0.173237E+02  0.313E+03    2.88       1.0  T
 224     16.4817643 -0.298045E+02  0.103E+03    5.02       1.0  T
 225     33.5044969  0.170227E+02  0.380E+03   34.22       1.0  T
 226     35.2351970  0.173070E+01  0.112E+03    0.70       1.0  T
 227     28.5521158 -0.668308E+01  0.628E+02    3.23       1.0  T
 228     33.7017548  0.514964E+01  0.320E+02    2.98       1.0  T
 229     35.1832960  0.148154E+01  0.104E+03    4.09       1.0  T
 230     46.9186408  0.117353E+02  0.160E+03    1.60       1.0  T
 231     30.0480374 -0.168706E+02  0.293E+02    6.17       1.0  T
 232     55.7891968  0.257412E+02  0.375E+03  114.33       1.0  T
 233     52.2880409 -0.350116E+01  0.384E+03   48.06       1.0  T
 234     42.5700275 -0.971801E+01  0.264E+03    8.99       1.0  T
 235     12.9576980 -0.296123E+02  0.232E+02    5.35       1.0  T
 236     31.9175434  0.189598E+02  0.167E+03    0.72       1.0  T
 237     46.4950708  0.145775E+02  0.557E+03    5.30       1.0  T
 238     46.0008391 -0.494232E+00  0.224E+03   18.34       1.0  T
 239     44.4365343 -0.156430E+01  0.191E+03   14.20       1.0  T
 240     28.9378740 -0.154987E+02  0.702E+02    5.22       1.0  T
 241     29.2332449  0.295371E+00  0.651E+02    4.66       1.0  T
 242     26.9687659 -0.226448E+01  0.108E+03    0.62       1.0  T
 243     29.9161634  0.294740E+01  0.257E+02    6.33       1.0  T
 244     45.2996371  0.153835E+02  0.156E+03   11.12       1.0  T
 245     27.1426184 -0.181570E+02  0.103E+03    4.12       1.0  T
 246     25.2725434 -0.187007E+01  0.103E+03    0.54       1.0  T
 247     27.4929309  0.222039E+01  0.435E+02    1.78       1.0  T
 248     46.4165513  0.189236E+02  0.131E+03    8.54       1.0  T
 249     29.6250760 -0.167915E+02  0.638E+02    3.17       1.0  T
 250     26.9265048 -0.269857E+01  0.871E+02    0.94       1.0  T
     SCC iter.                  ...        0 min,  0.228 sec
     gradient                   ...        0 min,  0.001 sec
================
 final structure:
================
9
 xtb: 6.5.1 (conda-forge)
Be           0.00000000000000        0.00000000000000        0.00000000000000
Be           2.68800000000000        0.00000000000000        0.00000000000000
B            4.82200000000000        0.00000000000000        1.06700000000000
C            6.57100000000000        0.00000000000000        1.94150000000000
C            4.87700000000000        0.00000000000000        2.78850000000000
H            6.13100000000000        0.00000000000000        3.41550000000000
H            6.13100000000000        0.81400000000000        3.82250000000000
H            5.31700000000000        0.81400000000000        4.22950000000000
H            5.31700000000000        0.00000000000000        4.63650000000000

 Bond Distances (Angstroems)
 ---------------------------
B3-C4=1.9554         B3-C5=1.7224         C4-B3=1.9554         C4-C5=1.8939         C5-B3=1.7224         C5-C4=1.8939         
 C  B  Rav=1.8389 sigma=0.1165  Rmin=1.7224  Rmax=1.9554     2
 C  C  Rav=1.8939 sigma=0.0000  Rmin=1.8939  Rmax=1.8939     1

 selected bond angles (degree)
 --------------------
C5-B3-C4= 61.61                C5-C4-B3= 53.13                C4-C5-B3= 65.26                

 selected dihedral angles (degree)
 ---------------------------------


 CMA Distance (Angstroems)
 ---------------------------
R(CMA):  5.2548
           -------------------------------------------------
          |                Final Singlepoint                |
           -------------------------------------------------

          ...................................................
          :                      SETUP                      :
          :.................................................:
          :  # basis functions                  24          :
          :  # atomic orbitals                  24          :
          :  # shells                           14          :
          :  # electrons                        19          :
          :  max. iterations                   250          :
          :  Hamiltonian                  GFN2-xTB          :
          :  restarted?                      false          :
          :  GBSA solvation                  false          :
          :  PC potential                    false          :
          :  electronic temp.          300.0000000     K    :
          :  accuracy                    1.0000000          :
          :  -> integral cutoff          0.2500000E+02      :
          :  -> integral neglect         0.1000000E-07      :
          :  -> SCF convergence          0.1000000E-05 Eh   :
          :  -> wf. convergence          0.1000000E-03 e    :
          :  Broyden damping             0.4000000          :
          ...................................................

 iter      E             dE          RMSdq      gap      omega  full diag
   1     24.6742932  0.246743E+02  0.171E+02    1.91       0.0  T
   2     22.5659346 -0.210836E+01  0.102E+02    1.35       1.0  T
   3     23.5137628  0.947828E+00  0.434E+01    0.83       1.0  T
   4     -0.6361237 -0.241499E+02  0.290E+01    1.34       1.0  T
   5     -2.8619409 -0.222582E+01  0.304E+01    2.10       1.0  T
   6     -3.0567700 -0.194829E+00  0.299E+01    1.56       1.0  T
   7     -3.0451665  0.116034E-01  0.260E+01    1.83       1.0  T
   8     30.4135300  0.334587E+02  0.294E+01    2.29       1.0  T
   9     -2.5165338 -0.329301E+02  0.180E+01    0.96       1.0  T
  10     -3.3539219 -0.837388E+00  0.148E+01    0.84       1.0  T
  11     -2.8782223  0.475700E+00  0.165E+01    0.64       1.0  T
  12     -1.9649384  0.913284E+00  0.195E+01    1.37       1.0  T
  13     -2.2106102 -0.245672E+00  0.184E+01    0.92       1.0  T
  14     25.1805105  0.273911E+02  0.243E+01    0.55       1.0  T
  15     13.2790363 -0.119015E+02  0.223E+01    0.08       1.0  T
  16      4.4946035 -0.878443E+01  0.183E+01    0.49       1.0  T
  17      3.7902827 -0.704321E+00  0.200E+01    0.24       1.0  T
  18      4.0903334  0.300051E+00  0.181E+01    0.76       1.0  T
  19      4.7704162  0.680083E+00  0.186E+01    0.32       1.0  T
  20      5.2908706  0.520454E+00  0.211E+01    0.32       1.0  T
  21      4.3649788 -0.925892E+00  0.199E+01    0.26       1.0  T
  22      5.7821172  0.141714E+01  0.254E+01    0.43       1.0  T
  23      5.6422686 -0.139849E+00  0.259E+01    0.44       1.0  T
  24      5.7251869  0.829183E-01  0.259E+01    0.43       1.0  T
  25     -2.5965871 -0.832177E+01  0.180E+01    0.59       1.0  T
  26     -2.7193195 -0.122732E+00  0.181E+01    0.56       1.0  T
  27     -1.6294280  0.108989E+01  0.184E+01    0.63       1.0  T
  28     -0.8213181  0.808110E+00  0.181E+01    0.68       1.0  T
  29      2.7436961  0.356501E+01  0.177E+01    0.93       1.0  T
  30      1.6374184 -0.110628E+01  0.175E+01    0.85       1.0  T
  31     -4.8381122 -0.647553E+01  0.204E+01    0.39       1.0  T
  32     -7.1771512 -0.233904E+01  0.243E+01    0.28       1.0  T
  33     -7.7519265 -0.574775E+00  0.211E+01    0.48       1.0  T
  34     -7.5524829  0.199444E+00  0.216E+01    0.62       1.0  T
  35     -7.4590417  0.934412E-01  0.225E+01    0.61       1.0  T
  36     -6.9982578  0.460784E+00  0.259E+01    0.18       1.0  T
  37     -5.7299599  0.126830E+01  0.249E+01    0.07       1.0  T
  38     -4.9971556  0.732804E+00  0.253E+01    0.08       1.0  T
  39     -5.3399850 -0.342829E+00  0.253E+01    0.08       1.0  T
  40     -6.1162626 -0.776278E+00  0.213E+01    0.15       1.0  T
  41      3.4734145  0.958968E+01  0.254E+01    0.42       1.0  T
  42     27.7676861  0.242943E+02  0.286E+01    1.09       1.0  T
  43      5.3853072 -0.223824E+02  0.212E+01    0.71       1.0  T
  44      6.8881888  0.150288E+01  0.229E+01    0.31       1.0  T
  45     13.1155380  0.622735E+01  0.273E+01    0.04       1.0  T
  46     15.7835064  0.266797E+01  0.255E+01    0.07       1.0  T
  47     12.5837594 -0.319975E+01  0.295E+01    0.08       1.0  T
  48     11.0632491 -0.152051E+01  0.314E+01    0.34       1.0  T
  49     11.1100037  0.467545E-01  0.315E+01    0.45       1.0  T
  50     10.8033885 -0.306615E+00  0.313E+01    0.45       1.0  T
  51     10.9201989  0.116810E+00  0.306E+01    0.46       1.0  T
  52     12.0049905  0.108479E+01  0.328E+01    0.54       1.0  T
  53     11.9644697 -0.405208E-01  0.321E+01    0.55       1.0  T
  54      8.1480104 -0.381646E+01  0.240E+01    0.55       1.0  T
  55      8.0563063 -0.917042E-01  0.248E+01    0.35       1.0  T
  56     11.4485216  0.339222E+01  0.305E+01    0.45       1.0  T
  57     10.9545648 -0.493957E+00  0.303E+01    0.47       1.0  T
  58     14.2998857  0.334532E+01  0.308E+01    0.12       1.0  T
  59     14.2039963 -0.958894E-01  0.307E+01    0.12       1.0  T
  60     14.3021328  0.981365E-01  0.312E+01    0.10       1.0  T
  61     25.1227232  0.108206E+02  0.323E+01    0.33       1.0  T
  62     14.7126757 -0.104100E+02  0.329E+01    0.14       1.0  T
  63     14.7713510  0.586753E-01  0.343E+01    0.18       1.0  T
  64     14.1935327 -0.577818E+00  0.344E+01    0.17       1.0  T
  65      6.7450302 -0.744850E+01  0.309E+01    0.34       1.0  T
  66      4.2192394 -0.252579E+01  0.284E+01    0.91       1.0  T
  67     -1.3961273 -0.561537E+01  0.244E+01    0.71       1.0  T
  68     -1.7260313 -0.329904E+00  0.248E+01    0.72       1.0  T
  69      1.7678291  0.349386E+01  0.233E+01    0.27       1.0  T
  70      1.5467522 -0.221077E+00  0.235E+01    0.28       1.0  T
  71      2.5881568  0.104140E+01  0.224E+01    0.26       1.0  T
  72      2.2215806 -0.366576E+00  0.217E+01    0.22       1.0  T
  73     14.2871140  0.120655E+02  0.250E+01    0.41       1.0  T
  74     14.9881627  0.701049E+00  0.248E+01    0.44       1.0  T
  75     15.1805659  0.192403E+00  0.249E+01    0.44       1.0  T
  76     13.9323345 -0.124823E+01  0.246E+01    0.42       1.0  T
  77     -3.4853260 -0.174177E+02  0.196E+01    0.34       1.0  T
  78     10.4419131  0.139272E+02  0.235E+01    0.34       1.0  T
  79     -3.5241945 -0.139661E+02  0.220E+01    0.38       1.0  T
  80     -5.5153227 -0.199113E+01  0.227E+01    0.27       1.0  T
  81     -7.3279064 -0.181258E+01  0.244E+01    0.16       1.0  T
  82     -7.0236528  0.304254E+00  0.235E+01    0.07       1.0  T
  83     -7.3404202 -0.316767E+00  0.242E+01    0.15       1.0  T
  84     -5.4704317  0.186999E+01  0.219E+01    0.20       1.0  T
  85     -4.2226765  0.124776E+01  0.205E+01    0.29       1.0  T
  86     -4.6458160 -0.423140E+00  0.213E+01    0.28       1.0  T
  87     -4.4127491  0.233067E+00  0.212E+01    0.25       1.0  T
  88     -4.4748065 -0.620574E-01  0.215E+01    0.24       1.0  T
  89     -6.0489340 -0.157413E+01  0.223E+01    0.06       1.0  T
  90     -7.5849595 -0.153603E+01  0.227E+01    0.28       1.0  T
  91     -7.9241986 -0.339239E+00  0.219E+01    0.23       1.0  T
  92     -7.8738616  0.503369E-01  0.208E+01    0.53       1.0  T
  93     -7.8592408  0.146208E-01  0.210E+01    0.54       1.0  T
  94     -7.8490934  0.101474E-01  0.211E+01    0.54       1.0  T
  95     -7.8595200 -0.104266E-01  0.211E+01    0.54       1.0  T
  96     -7.8341419  0.253781E-01  0.213E+01    0.55       1.0  T
  97     -7.8557702 -0.216283E-01  0.211E+01    0.54       1.0  T
  98     -7.7415778  0.114192E+00  0.219E+01    0.53       1.0  T
  99     -7.6567177  0.848602E-01  0.227E+01    0.49       1.0  T
 100     -7.6930754 -0.363578E-01  0.227E+01    0.49       1.0  T
 101     -7.7230208 -0.299454E-01  0.218E+01    0.10       1.0  T
 102     -7.9104221 -0.187401E+00  0.226E+01    0.21       1.0  T
 103     -6.7536876  0.115673E+01  0.237E+01    0.13       1.0  T
 104     -5.0804780  0.167321E+01  0.245E+01    0.35       1.0  T
 105     -6.1516699 -0.107119E+01  0.239E+01    0.16       1.0  T
 106     -6.0228413  0.128829E+00  0.244E+01    0.18       1.0  T
 107     -6.1170873 -0.942460E-01  0.242E+01    0.17       1.0  T
 108     -6.1152485  0.183876E-02  0.242E+01    0.17       1.0  T
 109     -7.1528130 -0.103756E+01  0.240E+01    0.22       1.0  T
 110     -6.3538392  0.798974E+00  0.247E+01    0.16       1.0  T
 111     -6.8056815 -0.451842E+00  0.245E+01    0.17       1.0  T
 112     -6.6204532  0.185228E+00  0.246E+01    0.16       1.0  T
 113     -6.6103750  0.100781E-01  0.246E+01    0.16       1.0  T
 114     -6.5511075  0.592675E-01  0.246E+01    0.15       1.0  T
 115     -6.5725365 -0.214290E-01  0.246E+01    0.16       1.0  T
 116     -6.6017394 -0.292029E-01  0.246E+01    0.16       1.0  T
 117     -6.6132576 -0.115182E-01  0.245E+01    0.16       1.0  T
 118     -6.6133323 -0.746854E-04  0.245E+01    0.16       1.0  T
 119     -6.6171791 -0.384685E-02  0.246E+01    0.16       1.0  T
 120     -6.5474204  0.697588E-01  0.249E+01    0.15       1.0  T
 121     -6.3511142  0.196306E+00  0.255E+01    0.15       1.0  T
 122     -6.1571342  0.193980E+00  0.262E+01    0.15       1.0  T
 123     -6.1043888  0.527454E-01  0.269E+01    0.15       1.0  T
 124     -6.1232803 -0.188915E-01  0.268E+01    0.15       1.0  T
 125     -6.2447873 -0.121507E+00  0.257E+01    0.14       1.0  T
 126     -6.6024574 -0.357670E+00  0.231E+01    0.06       1.0  T
 127     -6.8481635 -0.245706E+00  0.211E+01    0.03       1.0  T
 128     -7.0505280 -0.202364E+00  0.200E+01    0.11       1.0  T
 129     -7.1294473 -0.789193E-01  0.196E+01    0.09       1.0  T
 130     -7.1153718  0.140754E-01  0.196E+01    0.08       1.0  T
 131     -7.3660488 -0.250677E+00  0.194E+01    0.12       1.0  T
 132     -7.7334028 -0.367354E+00  0.192E+01    0.18       1.0  T
 133     -7.6748382  0.585646E-01  0.193E+01    0.22       1.0  T
 134     -7.5848946  0.899437E-01  0.192E+01    0.20       1.0  T
 135     -7.7641610 -0.179266E+00  0.189E+01    0.17       1.0  T
 136     -7.9135122 -0.149351E+00  0.192E+01    0.22       1.0  T
 137     -7.8801282  0.333840E-01  0.196E+01    0.26       1.0  T
 138     -7.9360042 -0.558760E-01  0.188E+01    0.16       1.0  T
 139     -7.8981217  0.378824E-01  0.193E+01    0.20       1.0  T
 140     -7.8897815  0.834018E-02  0.196E+01    0.20       1.0  T
 141     -7.8991820 -0.940045E-02  0.194E+01    0.20       1.0  T
 142     -7.8927860  0.639600E-02  0.195E+01    0.20       1.0  T
 143     -7.8930947 -0.308666E-03  0.197E+01    0.18       1.0  T
 144     -7.9455920 -0.524973E-01  0.197E+01    0.15       1.0  T
 145     -8.0090270 -0.634351E-01  0.201E+01    0.16       1.0  T
 146     -8.0360086 -0.269815E-01  0.201E+01    0.16       1.0  T
 147     -7.9395108  0.964978E-01  0.200E+01    0.22       1.0  T
 148     -7.8359290  0.103582E+00  0.212E+01    0.38       1.0  T
 149     -7.8164162  0.195129E-01  0.225E+01    0.38       1.0  T
 150     -7.8096568  0.675939E-02  0.230E+01    0.36       1.0  T
 151     -7.8228202 -0.131634E-01  0.231E+01    0.35       1.0  T
 152     -7.9120083 -0.891881E-01  0.235E+01    0.27       1.0  T
 153     -7.9264685 -0.144602E-01  0.242E+01    0.28       1.0  T
 154     -7.9164521  0.100163E-01  0.250E+01    0.30       1.0  T
 155     -7.9164048  0.473084E-04  0.250E+01    0.30       1.0  T
 156     -7.8953481  0.210567E-01  0.247E+01    0.32       1.0  T
 157     -7.8657423  0.296059E-01  0.244E+01    0.35       1.0  T
 158     -7.8312607  0.344816E-01  0.244E+01    0.38       1.0  T
 159     -7.8218534  0.940723E-02  0.244E+01    0.38       1.0  T
 160     -7.8320840 -0.102305E-01  0.242E+01    0.36       1.0  T
 161     -7.8399738 -0.788983E-02  0.238E+01    0.33       1.0  T
 162     -7.8359326  0.404114E-02  0.236E+01    0.34       1.0  T
 163     -7.8364486 -0.515983E-03  0.237E+01    0.34       1.0  T
 164     -7.8299585  0.649014E-02  0.239E+01    0.35       1.0  T
 165     -7.8266709  0.328763E-02  0.239E+01    0.36       1.0  T
 166     -7.8354853 -0.881439E-02  0.238E+01    0.35       1.0  T
 167     -7.8511014 -0.156161E-01  0.236E+01    0.33       1.0  T
 168     -7.8743470 -0.232456E-01  0.234E+01    0.30       1.0  T
 169     -7.9322648 -0.579178E-01  0.231E+01    0.22       1.0  T
 170     -7.9511992 -0.189344E-01  0.226E+01    0.23       1.0  T
 171     -8.0062743 -0.550752E-01  0.217E+01    0.19       1.0  T
 172     -7.9490196  0.572547E-01  0.201E+01    0.30       1.0  T
 173     -7.9990049 -0.499853E-01  0.196E+01    0.20       1.0  T
 174     -7.9141610  0.848438E-01  0.183E+01    0.36       1.0  T
 175     -7.9439476 -0.297866E-01  0.179E+01    0.25       1.0  T
 176     -7.8777392  0.662084E-01  0.176E+01    0.33       1.0  T
 177     -7.8687785  0.896076E-02  0.173E+01    0.29       1.0  T
 178     -7.8696615 -0.883071E-03  0.171E+01    0.27       1.0  T
 179     -7.9209459 -0.512844E-01  0.168E+01    0.22       1.0  T
 180     -7.9671710 -0.462250E-01  0.166E+01    0.19       1.0  T
 181     -8.0006945 -0.335235E-01  0.167E+01    0.18       1.0  T
 182     -7.9996996  0.994945E-03  0.167E+01    0.18       1.0  T
 183     -7.9471715  0.525280E-01  0.170E+01    0.22       1.0  T
 184     -7.9387604  0.841113E-02  0.171E+01    0.23       1.0  T
 185     -7.9494339 -0.106735E-01  0.170E+01    0.22       1.0  T
 186     -7.9572702 -0.783628E-02  0.170E+01    0.21       1.0  T
 187     -7.9598375 -0.256730E-02  0.171E+01    0.22       1.0  T
 188     -7.9584105  0.142700E-02  0.170E+01    0.22       1.0  T
 189     -7.9581625  0.248038E-03  0.171E+01    0.22       1.0  T
 190     -7.9654069 -0.724440E-02  0.170E+01    0.21       1.0  T
 191     -7.9785159 -0.131090E-01  0.169E+01    0.20       1.0  T
 192     -7.9876845 -0.916865E-02  0.169E+01    0.19       1.0  T
 193     -7.9933059 -0.562139E-02  0.169E+01    0.19       1.0  T
 194     -7.9971408 -0.383492E-02  0.168E+01    0.19       1.0  T
 195     -7.9987840 -0.164321E-02  0.168E+01    0.19       1.0  T
 196     -7.9988611 -0.770525E-04  0.168E+01    0.19       1.0  T
 197     -8.0097005 -0.108394E-01  0.168E+01    0.18       1.0  T
 198     -8.0164207 -0.672015E-02  0.167E+01    0.18       1.0  T
 199     -8.0149221  0.149857E-02  0.166E+01    0.18       1.0  T
 200     -8.0108198  0.410234E-02  0.166E+01    0.19       1.0  T
 201     -8.0124112 -0.159141E-02  0.165E+01    0.19       1.0  T
 202     -8.0185087 -0.609758E-02  0.165E+01    0.19       1.0  T
 203     -8.0190106 -0.501893E-03  0.166E+01    0.19       1.0  T
 204     -8.0187934  0.217221E-03  0.166E+01    0.19       1.0  T
 205     -8.0202287 -0.143530E-02  0.166E+01    0.19       1.0  T
 206     -8.0214971 -0.126841E-02  0.165E+01    0.19       1.0  T
 207     -8.0179270  0.357018E-02  0.166E+01    0.19       1.0  T
 208     -8.0097391  0.818784E-02  0.165E+01    0.20       1.0  T
 209     -8.0025317  0.720737E-02  0.164E+01    0.20       1.0  T
 210     -8.0193472 -0.168155E-01  0.159E+01    0.17       1.0  T
 211     -8.0501984 -0.308512E-01  0.158E+01    0.16       1.0  T
 212     -8.0542387 -0.404029E-02  0.165E+01    0.18       1.0  T
 213     -8.0329512  0.212876E-01  0.171E+01    0.23       1.0  T
 214     -8.0233043  0.964692E-02  0.172E+01    0.24       1.0  T
 215     -8.0173516  0.595267E-02  0.172E+01    0.25       1.0  T
 216     -8.0201522 -0.280066E-02  0.172E+01    0.23       1.0  T
 217     -8.0527542 -0.326019E-01  0.160E+01    0.15       1.0  T
 218     -7.9900535  0.627006E-01  0.151E+01    0.17       1.0  T
 219     -7.9316794  0.583741E-01  0.146E+01    0.17       1.0  T
 220     -7.9210867  0.105927E-01  0.142E+01    0.16       1.0  T
 221     -7.9825233 -0.614366E-01  0.145E+01    0.14       1.0  T
 222     -8.0072289 -0.247056E-01  0.152E+01    0.15       1.0  T
 223     -8.0149429 -0.771396E-02  0.153E+01    0.15       1.0  T
 224     -8.0065347  0.840818E-02  0.150E+01    0.13       1.0  T
 225     -7.9944436  0.120911E-01  0.147E+01    0.13       1.0  T
 226     -7.9918892  0.255434E-02  0.146E+01    0.13       1.0  T
 227     -7.9925121 -0.622906E-03  0.146E+01    0.13       1.0  T
 228     -7.9933248 -0.812655E-03  0.146E+01    0.13       1.0  T
 229     -7.9926171  0.707673E-03  0.146E+01    0.13       1.0  T
 230     -7.9937619 -0.114477E-02  0.147E+01    0.13       1.0  T
 231     -7.9967626 -0.300070E-02  0.149E+01    0.13       1.0  T
 232     -7.9991694 -0.240680E-02  0.151E+01    0.13       1.0  T
 233     -8.0006171 -0.144770E-02  0.152E+01    0.13       1.0  T
 234     -8.0011766 -0.559483E-03  0.152E+01    0.13       1.0  T
 235     -8.0011375  0.391000E-04  0.152E+01    0.13       1.0  T
 236     -8.0020544 -0.916874E-03  0.152E+01    0.13       1.0  T
 237     -8.0075960 -0.554163E-02  0.151E+01    0.13       1.0  T
 238     -8.0150619 -0.746593E-02  0.151E+01    0.14       1.0  T
 239     -8.0181484 -0.308644E-02  0.151E+01    0.15       1.0  T
 240     -8.0192216 -0.107325E-02  0.150E+01    0.15       1.0  T
 241     -8.0202085 -0.986897E-03  0.149E+01    0.16       1.0  T
 242     -8.0212333 -0.102477E-02  0.147E+01    0.17       1.0  T
 243     -8.0213199 -0.866380E-04  0.143E+01    0.19       1.0  T
 244     -8.0191768  0.214308E-02  0.140E+01    0.22       1.0  T
 245     -8.0152592  0.391759E-02  0.137E+01    0.25       1.0  T
 246     -8.0118297  0.342952E-02  0.135E+01    0.28       1.0  T
 247     -8.0126658 -0.836074E-03  0.133E+01    0.30       1.0  T
 248     -8.0245462 -0.118804E-01  0.130E+01    0.28       1.0  T
 249     -8.0586484 -0.341022E-01  0.120E+01    0.20       1.0  T
 250     -8.0722031 -0.135547E-01  0.105E+01    0.13       1.0  T

   *** convergence criteria cannot be satisfied within 250 iterations ***

         #    Occupation            Energy/Eh            Energy/eV
      -------------------------------------------------------------
         1        2.0000           -0.5666560             -15.4195
       ...           ...                  ...                  ...
         4        2.0000           -0.3397670              -9.2455
         5        2.0000           -0.3150866              -8.5739
         6        2.0000           -0.2956867              -8.0460
         7        2.0000           -0.2735418              -7.4435
         8        2.0000           -0.2648130              -7.2059
         9        2.0000           -0.2239463              -6.0939
        10        0.9312           -0.1901136              -5.1733 (HOMO)
        11        0.0687           -0.1851625              -5.0385 (LUMO)
        12        0.0001           -0.1791358              -4.8745
        13                         -0.1593443              -4.3360
        14                         -0.1532032              -4.1689
        15                         -0.1255652              -3.4168
       ...                                ...                  ...
        24                          0.5485583              14.9270
      -------------------------------------------------------------
                  HL-Gap            0.0049512 Eh            0.1347 eV
             Fermi-level           -0.1973358 Eh           -5.3698 eV

 SCC (total)                   0 d,  0 h,  0 min,  0.221 sec
 SCC setup                      ...        0 min,  0.000 sec (  0.018%)
 Dispersion                     ...        0 min,  0.000 sec (  0.038%)
 classical contributions        ...        0 min,  0.000 sec (  0.011%)
 integral evaluation            ...        0 min,  0.000 sec (  0.076%)
 iterations                     ...        0 min,  0.220 sec ( 99.519%)
 molecular gradient             ...        0 min,  0.001 sec (  0.297%)
 printout                       ...        0 min,  0.000 sec (  0.032%)


last geometry written to: xtblast.xyz

########################################################################
Note: The following floating-point exceptions are signalling: IEEE_INVALID_FLAG IEEE_UNDERFLOW_FLAG
ERROR STOP 

Error termination. Backtrace:
#0  0x102f68327
#1  0x102f69147
#2  0x102f6a72b
#3  0x1029f02e7
#4  0x10211f513
#5  0x1021273bf
abnormal termination of xtb
[ERROR] Program stopped due to fatal error
-12- Geometry optimization failed
-11- xtb_calculator_singlepoint: Electronic structure method terminated
-10- scf: Self consistent charge iterator did not converge
-9- xtb_geoopt: Trying to recover from failed geometry optimization
-8- xtb_geoopt: Geometry optimization did not converge
-7- optimizer_ancopt: Could not relax structure
-6- optimizer_relax: SCF not converged, aborting...
-5- xtb_calculator_singlepoint: Electronic structure method terminated
-4- scf: Self consistent charge iterator did not converge
-3- restart_readRestart: Dimension missmatch in restart file.
-2- restart_readRestart: Multiplicity missmatch in restart file.
-1- restart_readRestart: Number of electron missmatch in restart file.
########################################################################
