      -----------------------------------------------------------      
     |                   =====================                   |     
     |                           x T B                           |     
     |                   =====================                   |     
     |                         S. Grimme                         |     
     |          Mulliken Center for Theoretical Chemistry        |     
     |                    University of Bonn                     |     
      -----------------------------------------------------------      

   * xtb version 6.5.1 (conda-forge) compiled by 'runner@Mac-1657629245115.local' on 2022-07-12

   xtb is free software: you can redistribute it and/or modify it under
   the terms of the GNU Lesser General Public License as published by
   the Free Software Foundation, either version 3 of the License, or
   (at your option) any later version.
   
   xtb is distributed in the hope that it will be useful,
   but WITHOUT ANY WARRANTY; without even the implied warranty of
   MERCHANTABILITY or FITNESS FOR A PARTICULAR PURPOSE.  See the
   GNU Lesser General Public License for more details.
   
   Cite this work as:
   * C. Bannwarth, E. Caldeweyher, S. Ehlert, A. Hansen, P. Pracht,
     J. Seibert, S. Spicher, S. Grimme, WIREs Comput. Mol. Sci., 2020, 11,
     e01493. DOI: 10.1002/wcms.1493
   
   for GFN2-xTB:
   * C. Bannwarth, S. Ehlert and S. Grimme., J. Chem. Theory Comput., 2019,
     15, 1652-1671. DOI: 10.1021/acs.jctc.8b01176
   for GFN1-xTB:
   * S. Grimme, C. Bannwarth, P. Shushkov, J. Chem. Theory Comput., 2017,
     13, 1989-2009. DOI: 10.1021/acs.jctc.7b00118
   for GFN0-xTB:
   * P. Pracht, E. Caldeweyher, S. Ehlert, S. Grimme, ChemRxiv, 2019, preprint.
     DOI: 10.26434/chemrxiv.8326202.v1
   for GFN-FF:
   * S. Spicher and S. Grimme, Angew. Chem. Int. Ed., 2020, 59, 15665-15673.
     DOI: 10.1002/anie.202004239
   
   for ALPB and GBSA implicit solvation:
   * S. Ehlert, M. Stahn, S. Spicher, S. Grimme, J. Chem. Theory Comput.,
     2021, 17, 4250-4261. DOI: 10.1021/acs.jctc.1c00471
   
   for DFT-D4:
   * E. Caldeweyher, C. Bannwarth and S. Grimme, J. Chem. Phys., 2017,
     147, 034112. DOI: 10.1063/1.4993215
   * E. Caldeweyher, S. Ehlert, A. Hansen, H. Neugebauer, S. Spicher,
     C. Bannwarth and S. Grimme, J. Chem. Phys., 2019, 150, 154122.
     DOI: 10.1063/1.5090222
   * E. Caldeweyher, J.-M. Mewes, S. Ehlert and S. Grimme, Phys. Chem. Chem. Phys.
     2020, 22, 8499-8512. DOI: 10.1039/D0CP00502A
   
   for sTDA-xTB:
   * S. Grimme and C. Bannwarth, J. Chem. Phys., 2016, 145, 054103.
     DOI: 10.1063/1.4959605
   
   in the mass-spec context:
   * V. Asgeirsson, C. Bauer and S. Grimme, Chem. Sci., 2017, 8, 4879.
     DOI: 10.1039/c7sc00601b
   * J. Koopman and S. Grimme, ACS Omega 2019, 4, 12, 15120-15133.
     DOI: 10.1021/acsomega.9b02011
   
   for metadynamics refer to:
   * S. Grimme, J. Chem. Theory Comput., 2019, 155, 2847-2862
     DOI: 10.1021/acs.jctc.9b00143
   
   for SPH calculations refer to:
   * S. Spicher and S. Grimme, J. Chem. Theory Comput., 2021, 17, 1701-1714
     DOI: 10.1021/acs.jctc.0c01306
   
   with help from (in alphabetical order)
   P. Atkinson, C. Bannwarth, F. Bohle, G. Brandenburg, E. Caldeweyher
   M. Checinski, S. Dohm, S. Ehlert, S. Ehrlich, I. Gerasimov, C. Hölzer
   A. Katbashev, J. Koopman, C. Lavigne, S. Lehtola, F. März, M. Müller,
   F. Musil, H. Neugebauer, J. Pisarek, C. Plett, P. Pracht, F. Pultar,
   J. Seibert, P. Shushkov, S. Spicher, M. Stahn, M. Steiner, T. Strunk,
   J. Stückrath, T. Rose, and J. Unsleber
   
 * started run on 2025/06/07 at 03:27:48.748     

           -------------------------------------------------
          |                Calculation Setup                |
           -------------------------------------------------

          program call               : xtb BBeC3H5.xyz --gfn 2 --opt
          coordinate file            : BBeC3H5.xyz
          omp threads                :                    16

   ID    Z sym.   atoms
    1    4 Be     1
    2    5 B      2
    3    6 C      3-5
    4    1 H      6-10

molecular fragmentation (1/2 indicates fragments):
1222222222
# atoms in fragment 1/2:     1     9
 fragment masses (1/2) :        9.01       51.88
CMA distance (Bohr)    :   7.392
constraining FC (au)   :  0.0500

           -------------------------------------------------
          |                 G F N 2 - x T B                 |
           -------------------------------------------------

        Reference                      10.1021/acs.jctc.8b01176
      * Hamiltonian:
        H0-scaling (s, p, d)           1.850000    2.230000    2.230000
        zeta-weighting                 0.500000
      * Dispersion:
        s8                             2.700000
        a1                             0.520000
        a2                             5.000000
        s9                             5.000000
      * Repulsion:
        kExp                           1.500000    1.000000
        rExp                           1.000000
      * Coulomb:
        alpha                          2.000000
        third order                    shell-resolved
        anisotropic                    true
        a3                             3.000000
        a5                             4.000000
        cn-shift                       1.200000
        cn-exp                         4.000000
        max-rad                        5.000000


          ...................................................
          :                      SETUP                      :
          :.................................................:
          :  # basis functions                  25          :
          :  # atomic orbitals                  25          :
          :  # shells                           15          :
          :  # electrons                        22          :
          :  max. iterations                   250          :
          :  Hamiltonian                  GFN2-xTB          :
          :  restarted?                      false          :
          :  GBSA solvation                  false          :
          :  PC potential                    false          :
          :  electronic temp.          300.0000000     K    :
          :  accuracy                    1.0000000          :
          :  -> integral cutoff          0.2500000E+02      :
          :  -> integral neglect         0.1000000E-07      :
          :  -> SCF convergence          0.1000000E-05 Eh   :
          :  -> wf. convergence          0.1000000E-03 e    :
          :  Broyden damping             0.4000000          :
          ...................................................

 iter      E             dE          RMSdq      gap      omega  full diag
   1     12.9553806  0.129554E+02  0.231E+01    0.10       0.0  T
   2     -6.6038392 -0.195592E+02  0.162E+01    0.34       1.0  T
   3     -7.6715387 -0.106770E+01  0.122E+01    0.79       1.0  T
   4     -6.7899326  0.881606E+00  0.101E+01    0.35       1.0  T
   5     -4.9518791  0.183805E+01  0.166E+01    0.61       1.0  T
   6     -6.3468743 -0.139500E+01  0.129E+01    0.82       1.0  T
   7     -7.8883204 -0.154145E+01  0.932E+00    0.30       1.0  T
   8     -8.9476722 -0.105935E+01  0.916E+00    0.74       1.0  T
   9     -9.1057178 -0.158046E+00  0.981E+00    0.79       1.0  T
  10     -9.5416793 -0.435961E+00  0.102E+01    0.71       1.0  T
  11     -8.7854204  0.756259E+00  0.756E+00    0.61       1.0  T
  12     -3.3301320  0.545529E+01  0.150E+01    0.24       1.0  T
  13     -8.6414477 -0.531132E+01  0.107E+01    0.52       1.0  T
  14     13.2640658  0.219055E+02  0.263E+01    0.02       1.0  T
  15     12.5370771 -0.726989E+00  0.227E+01    0.09       1.0  T
  16     11.7584967 -0.778580E+00  0.216E+01    0.09       1.0  T
  17     12.1058250  0.347328E+00  0.221E+01    0.08       1.0  T
  18     12.1367147  0.308898E-01  0.220E+01    0.09       1.0  T
  19     12.7055376  0.568823E+00  0.235E+01    0.08       1.0  T
  20     11.7174628 -0.988075E+00  0.243E+01    0.09       1.0  T
  21     -9.7398441 -0.214573E+02  0.120E+01    0.48       1.0  T
  22     -9.7798599 -0.400158E-01  0.930E+00    0.40       1.0  T
  23     -9.8380914 -0.582315E-01  0.788E+00    0.22       1.0  T
  24     -9.6873837  0.150708E+00  0.652E+00    0.47       1.0  T
  25     -4.3489880  0.533840E+01  0.139E+01    0.14       1.0  T
  26      4.5204073  0.886940E+01  0.153E+01    0.15       1.0  T
  27      4.4438438 -0.765635E-01  0.152E+01    0.15       1.0  T
  28      5.6247923  0.118095E+01  0.160E+01    0.16       1.0  T
  29     -5.3392255 -0.109640E+02  0.138E+01    0.13       1.0  T
  30     -9.8876973 -0.454847E+01  0.473E+00    0.17       1.0  T
  31     -9.8733008  0.143965E-01  0.593E+00    0.05       1.0  T
  32     -9.9047041 -0.314033E-01  0.543E+00    0.06       1.0  T
  33     -9.8504392  0.542649E-01  0.620E+00    0.05       1.0  T
  34     -9.0907012  0.759738E+00  0.114E+01    0.19       1.0  T
  35     -9.0080636  0.826376E-01  0.117E+01    0.18       1.0  T
  36     -9.8077419 -0.799678E+00  0.409E+00    0.39       1.0  T
  37     -9.3834124  0.424329E+00  0.379E+00    0.40       1.0  T
  38     -9.3873265 -0.391409E-02  0.382E+00    0.39       1.0  T
  39     -9.5564041 -0.169078E+00  0.333E+00    0.34       1.0  T
  40     -9.4750999  0.813042E-01  0.341E+00    0.34       1.0  T
  41     -9.3187603  0.156340E+00  0.367E+00    0.34       1.0  T
  42     -9.4344373 -0.115677E+00  0.349E+00    0.33       1.0  T
  43     -9.4488933 -0.144559E-01  0.351E+00    0.32       1.0  T
  44     -9.4870259 -0.381326E-01  0.350E+00    0.31       1.0  T
  45     -9.4811586  0.586724E-02  0.348E+00    0.31       1.0  T
  46     -9.4672430  0.139156E-01  0.354E+00    0.32       1.0  T
  47     -9.5018403 -0.345973E-01  0.357E+00    0.33       1.0  T
  48     -9.5010018  0.838495E-03  0.359E+00    0.33       1.0  T
  49     -9.5519325 -0.509307E-01  0.359E+00    0.33       1.0  T
  50     -9.5672860 -0.153535E-01  0.351E+00    0.32       1.0  T
  51     -9.6055520 -0.382660E-01  0.347E+00    0.31       1.0  T
  52     -9.5769142  0.286379E-01  0.359E+00    0.30       1.0  T
  53     -9.5894507 -0.125365E-01  0.366E+00    0.30       1.0  T
  54     -9.5813738  0.807685E-02  0.370E+00    0.30       1.0  T
  55     -9.5887967 -0.742291E-02  0.363E+00    0.30       1.0  T
  56     -9.5692805  0.195162E-01  0.332E+00    0.30       1.0  T
  57     -9.5916383 -0.223578E-01  0.272E+00    0.29       1.0  T
  58     -9.6700261 -0.783878E-01  0.233E+00    0.26       1.0  T
  59     -9.7323229 -0.622968E-01  0.203E+00    0.24       1.0  T
  60     -9.7739444 -0.416215E-01  0.189E+00    0.23       1.0  T
  61     -9.9134664 -0.139522E+00  0.170E+00    0.18       1.0  T
  62     -9.9278783 -0.144119E-01  0.253E+00    0.10       1.0  T
  63     -9.9069513  0.209270E-01  0.292E+00    0.08       1.0  T
  64     -9.8978688  0.908255E-02  0.306E+00    0.08       1.0  T
  65     -9.7668900  0.130979E+00  0.460E+00    0.06       1.0  T
  66     -9.8348214 -0.679314E-01  0.389E+00    0.06       1.0  T
  67     -9.7250591  0.109762E+00  0.497E+00    0.06       1.0  T
  68     -9.6945697  0.304894E-01  0.524E+00    0.06       1.0  T
  69     -9.8774755 -0.182906E+00  0.339E+00    0.07       1.0  T
  70     -9.9350401 -0.575646E-01  0.234E+00    0.10       1.0  T
  71     -9.9300919  0.494815E-02  0.170E+00    0.16       1.0  T
  72     -9.9244959  0.559604E-02  0.160E+00    0.16       1.0  T
  73     -9.8989875  0.255084E-01  0.147E+00    0.17       1.0  T
  74     -9.8939418  0.504573E-02  0.145E+00    0.17       1.0  T
  75     -9.8909508  0.299092E-02  0.147E+00    0.18       1.0  T
  76     -9.8889369  0.201396E-02  0.150E+00    0.18       1.0  T
  77     -9.9069272 -0.179903E-01  0.146E+00    0.17       1.0  T
  78     -9.8974982  0.942896E-02  0.146E+00    0.17       1.0  T
  79     -9.9019775 -0.447929E-02  0.143E+00    0.17       1.0  T
  80     -9.9025075 -0.530030E-03  0.158E+00    0.16       1.0  T
  81     -9.8655453  0.369622E-01  0.181E+00    0.18       1.0  T
  82     -9.8822532 -0.167079E-01  0.180E+00    0.17       1.0  T
  83     -9.8710874  0.111658E-01  0.199E+00    0.18       1.0  T
  84     -9.8630427  0.804474E-02  0.197E+00    0.18       1.0  T
  85     -9.8537031  0.933955E-02  0.197E+00    0.18       1.0  T
  86     -9.8506749  0.302817E-02  0.198E+00    0.19       1.0  T
  87     -9.8514725 -0.797559E-03  0.199E+00    0.19       1.0  T
  88     -9.8638013 -0.123288E-01  0.196E+00    0.18       1.0  T
  89     -9.8638675 -0.662128E-04  0.196E+00    0.18       1.0  T
  90     -9.8714109 -0.754338E-02  0.196E+00    0.18       1.0  T
  91     -9.8716151 -0.204267E-03  0.197E+00    0.18       1.0  T
  92     -9.8722076 -0.592497E-03  0.198E+00    0.18       1.0  T
  93     -9.8705849  0.162276E-02  0.196E+00    0.18       1.0  T
  94     -9.8669843  0.360055E-02  0.193E+00    0.18       1.0  T
  95     -9.8619799  0.500439E-02  0.189E+00    0.19       1.0  T
  96     -9.8558021  0.617779E-02  0.186E+00    0.19       1.0  T
  97     -9.8489478  0.685430E-02  0.184E+00    0.19       1.0  T
  98     -9.8413139  0.763392E-02  0.183E+00    0.20       1.0  T
  99     -9.8328597  0.845419E-02  0.184E+00    0.21       1.0  T
 100     -9.8239072  0.895251E-02  0.188E+00    0.21       1.0  T
 101     -9.8153114  0.859583E-02  0.193E+00    0.22       1.0  T
 102     -9.8079486  0.736273E-02  0.199E+00    0.23       1.0  T
 103     -9.8021246  0.582407E-02  0.205E+00    0.24       1.0  T
 104     -9.7978222  0.430233E-02  0.209E+00    0.25       1.0  T
 105     -9.7968833  0.938966E-03  0.211E+00    0.26       1.0  T
 106     -9.8071553 -0.102720E-01  0.205E+00    0.27       1.0  T
 107     -9.8324612 -0.253059E-01  0.186E+00    0.27       1.0  T
 108     -9.8543174 -0.218562E-01  0.170E+00    0.26       1.0  T
 109     -9.8664841 -0.121667E-01  0.160E+00    0.26       1.0  T
 110     -9.8782806 -0.117965E-01  0.151E+00    0.25       1.0  T
 111     -9.8900545 -0.117739E-01  0.142E+00    0.24       1.0  T
 112     -9.8973385 -0.728402E-02  0.137E+00    0.23       1.0  T
 113     -9.9020363 -0.469783E-02  0.132E+00    0.23       1.0  T
 114     -9.9064004 -0.436412E-02  0.127E+00    0.22       1.0  T
 115     -9.9089549 -0.255446E-02  0.124E+00    0.22       1.0  T
 116     -9.9102991 -0.134426E-02  0.121E+00    0.22       1.0  T
 117     -9.9145759 -0.427680E-02  0.114E+00    0.22       1.0  T
 118     -9.9195445 -0.496852E-02  0.109E+00    0.21       1.0  T
 119     -9.9203366 -0.792169E-03  0.106E+00    0.21       1.0  T
 120     -9.9222093 -0.187269E-02  0.993E-01    0.22       1.0  T
 121     -9.9325627 -0.103533E-01  0.885E-01    0.21       1.0  T
 122     -9.9357425 -0.317983E-02  0.846E-01    0.21       1.0  T
 123     -9.9356743  0.681482E-04  0.824E-01    0.22       1.0  T
 124     -9.9373896 -0.171529E-02  0.726E-01    0.22       1.0  T
 125     -9.9450342 -0.764458E-02  0.668E-01    0.21       1.0  T
 126     -9.9475220 -0.248776E-02  0.701E-01    0.21       1.0  T
 127     -9.9476894 -0.167426E-03  0.678E-01    0.21       1.0  T
 128     -9.9464287  0.126073E-02  0.449E-01    0.23       1.0  T
 129     -9.9455276  0.901058E-03  0.472E-01    0.24       1.0  T
 130     -9.9443872  0.114041E-02  0.528E-01    0.24       1.0  T
 131     -9.9448170 -0.429748E-03  0.522E-01    0.24       1.0  T
 132     -9.9477177 -0.290076E-02  0.450E-01    0.23       1.0  T
 133     -9.9481453 -0.427572E-03  0.428E-01    0.23       1.0  T
 134     -9.9479612  0.184122E-03  0.409E-01    0.24       1.0  T
 135     -9.9480785 -0.117351E-03  0.402E-01    0.24       1.0  T
 136     -9.9482580 -0.179441E-03  0.394E-01    0.23       1.0  T
 137     -9.9482457  0.122950E-04  0.381E-01    0.23       1.0  T
 138     -9.9482311  0.145727E-04  0.369E-01    0.24       1.0  T
 139     -9.9482412 -0.100724E-04  0.359E-01    0.24       1.0  T
 140     -9.9482358  0.536015E-05  0.349E-01    0.24       1.0  T
 141     -9.9482309  0.488840E-05  0.339E-01    0.24       1.0  T
 142     -9.9482372 -0.631936E-05  0.328E-01    0.24       1.0  T
 143     -9.9482365  0.766484E-06  0.313E-01    0.24       1.0  T
 144     -9.9482150  0.215008E-04  0.292E-01    0.24       1.0  T
 145     -9.9482101  0.488148E-05  0.272E-01    0.24       1.0  T
 146     -9.9482084  0.168896E-05  0.241E-01    0.24       1.0  T
 147     -9.9482108 -0.242451E-05  0.207E-01    0.24       1.0  T
 148     -9.9482401 -0.292801E-04  0.169E-01    0.24       1.0  T
 149     -9.9482620 -0.219410E-04  0.130E-01    0.24       1.0  T
 150     -9.9482730 -0.109813E-04  0.906E-02    0.24       1.0  T
 151     -9.9482791 -0.610649E-05  0.585E-02    0.24       1.0  T
 152     -9.9482789  0.255358E-06  0.338E-02    0.24       1.0  T
 153     -9.9482796 -0.758775E-06  0.204E-02    0.24       1.6  T
 154     -9.9482797 -0.187124E-07  0.125E-02    0.24       2.5  T
 155     -9.9482829 -0.329837E-05  0.564E-03    0.24       5.6  T
 156     -9.9482832 -0.249305E-06  0.340E-03    0.24       9.3  T
 157     -9.9482833 -0.111212E-06  0.574E-03    0.24       5.5  T
 158     -9.9482835 -0.174635E-06  0.449E-04    0.24      70.4  T
 159     -9.9482834  0.731013E-07  0.279E-03    0.24      11.3  T
 160     -9.9482835 -0.565892E-07  0.116E-03    0.24      27.2  T
 161     -9.9482835 -0.105585E-07  0.747E-04    0.24      42.3  T

   *** convergence criteria satisfied after 161 iterations ***

         #    Occupation            Energy/Eh            Energy/eV
      -------------------------------------------------------------
         1        2.0000           -0.5892447             -16.0342
       ...           ...                  ...                  ...
         5        2.0000           -0.4205660             -11.4442
         6        2.0000           -0.4039257             -10.9914
         7        2.0000           -0.3482492              -9.4763
         8        2.0000           -0.3395680              -9.2401
         9        2.0000           -0.3329842              -9.0610
        10        2.0000           -0.3055891              -8.3155
        11        1.9812           -0.2967016              -8.0737 (HOMO)
        12        0.0185           -0.2878352              -7.8324 (LUMO)
        13        0.0003           -0.2838936              -7.7251
        14                         -0.2483133              -6.7569
        15                         -0.2391927              -6.5088
        16                         -0.2225239              -6.0552
       ...                                ...                  ...
        25                          0.6392669              17.3953
      -------------------------------------------------------------
                  HL-Gap            0.0088664 Eh            0.2413 eV
             Fermi-level           -0.2922759 Eh           -7.9532 eV

 SCC (total)                   0 d,  0 h,  0 min,  0.084 sec
 SCC setup                      ...        0 min,  0.000 sec (  0.095%)
 Dispersion                     ...        0 min,  0.001 sec (  0.974%)
 classical contributions        ...        0 min,  0.006 sec (  7.501%)
 integral evaluation            ...        0 min,  0.000 sec (  0.239%)
 iterations                     ...        0 min,  0.076 sec ( 90.554%)
 molecular gradient             ...        0 min,  0.000 sec (  0.583%)
 printout                       ...        0 min,  0.000 sec (  0.039%)

         :::::::::::::::::::::::::::::::::::::::::::::::::::::
         ::                     SUMMARY                     ::
         :::::::::::::::::::::::::::::::::::::::::::::::::::::
         :: total energy              -9.878210185197 Eh    ::
         :: gradient norm              0.298065863867 Eh/a0 ::
         :: HOMO-LUMO gap              0.241266333482 eV    ::
         ::.................................................::
         :: SCC energy                -9.948283477936 Eh    ::
         :: -> isotropic ES           -0.062659397864 Eh    ::
         :: -> anisotropic ES          0.012259062837 Eh    ::
         :: -> anisotropic XC         -0.018796247205 Eh    ::
         :: -> dispersion             -0.007991623807 Eh    ::
         :: repulsion energy           0.070070043009 Eh    ::
         :: add. restraining           0.000000000000 Eh    ::
         :: total charge               0.000000000001 e     ::
         :::::::::::::::::::::::::::::::::::::::::::::::::::::

      ----------------------------------------------------------- 
     |                   =====================                   |
     |                        A N C O P T                        |
     |                   =====================                   |
     |               Approximate Normal Coordinate               |
     |                Rational Function Optimizer                |
      ----------------------------------------------------------- 

          ...................................................
          :                      SETUP                      :
          :.................................................:
          :   optimization level            normal          :
          :   max. optcycles                   200          :
          :   ANC micro-cycles                  20          :
          :   degrees of freedom                24          :
          :.................................................:
          :   RF solver                   davidson          :
          :   write xtbopt.log                true          :
          :   linear?                        false          :
          :   energy convergence         0.5000000E-05 Eh   :
          :   grad. convergence          0.1000000E-02 Eh/α :
          :   maximium RF displ.         1.0000000          :
          :   Hlow (freq-cutoff)         0.1000000E-01      :
          :   Hmax (freq-cutoff)         5.0000000          :
          :   S6 in model hess.         20.0000000          :
          ...................................................

generating ANC from model Hessian ...
Using Lindh-Hessian (1995)
 Shifting diagonal of input Hessian by    2.2076294699762404E-002
 Lowest  eigenvalues of input Hessian
    0.010000    0.019715    0.021560    0.000000    0.000000    0.000000
    0.000000    0.000000    0.000000    0.022633    0.022774    0.023293
    0.024169    0.026767    0.028524    0.033634    0.038564    0.041914
 Highest eigenvalues
    0.226275    0.244821    0.279536    0.305767    0.357480    0.387645


........................................................................
.............................. CYCLE    1 ..............................
........................................................................
   1     -9.9482835 -0.994828E+01  0.263E-04    0.24       0.0  T
   2     -9.9482834  0.991861E-07  0.295E-03    0.24      10.7  T
   3     -9.9482835 -0.728504E-07  0.164E-03    0.24      19.3  T
   4     -9.9482835 -0.171215E-08  0.157E-03    0.24      20.1  T
   5     -9.9482835 -0.212668E-07  0.624E-04    0.24      50.6  T
   6     -9.9482835 -0.171695E-08  0.439E-04    0.24      72.1  T
     SCC iter.                  ...        0 min,  0.001 sec
     gradient                   ...        0 min,  0.001 sec
 * total energy  :    -9.8782102 Eh     change       -0.4284576E-08 Eh
   gradient norm :     0.2980286 Eh/α   predicted     0.0000000E+00 (-100.00%)
   displ. norm   :     0.7719866 α      lambda       -0.2191422E+00
   maximum displ.:     0.3538775 α      in ANC's #17, #21, #1, ...

........................................................................
.............................. CYCLE    2 ..............................
........................................................................
   1    -10.0686433 -0.100686E+02  0.292E+00    0.59       0.0  T
   2      4.3445062  0.144131E+02  0.168E+01    0.09       1.0  T
   3     -9.8273507 -0.141719E+02  0.361E+00    0.93       1.0  T
   4    -10.0786334 -0.251283E+00  0.173E+00    0.58       1.0  T
   5    -10.0342561  0.443773E-01  0.135E+00    0.81       1.0  T
   6    -10.0631184 -0.288623E-01  0.112E+00    0.63       1.0  T
   7    -10.0808754 -0.177570E-01  0.976E-01    0.60       1.0  T
   8    -10.0653039  0.155715E-01  0.104E+00    0.65       1.0  T
   9    -10.0921689 -0.268650E-01  0.856E-01    0.54       1.0  T
  10    -10.0980390 -0.587010E-02  0.812E-01    0.51       1.0  T
  11    -10.0998064 -0.176739E-02  0.776E-01    0.50       1.0  T
  12    -10.1062036 -0.639719E-02  0.637E-01    0.47       1.0  T
  13    -10.1079161 -0.171251E-02  0.570E-01    0.47       1.0  T
  14    -10.1111954 -0.327927E-02  0.482E-01    0.45       1.0  T
  15    -10.1089574  0.223796E-02  0.550E-01    0.46       1.0  T
  16    -10.1092966 -0.339148E-03  0.536E-01    0.46       1.0  T
  17    -10.1178860 -0.858937E-02  0.225E-01    0.38       1.0  T
  18    -10.1179034 -0.174920E-04  0.226E-01    0.38       1.0  T
  19    -10.1181031 -0.199672E-03  0.161E-01    0.38       1.0  T
  20    -10.1181579 -0.548212E-04  0.477E-02    0.39       1.0  T
  21    -10.1182379 -0.799906E-04  0.267E-02    0.39       1.2  T
  22    -10.1182463 -0.840133E-05  0.160E-02    0.39       2.0  T
  23    -10.1182494 -0.308157E-05  0.932E-03    0.39       3.4  T
  24    -10.1182494  0.512209E-07  0.590E-03    0.39       5.4  T
  25    -10.1182493  0.682879E-07  0.199E-03    0.39      15.9  T
  26    -10.1182494 -0.123487E-06  0.783E-04    0.39      40.4  T
  27    -10.1182494 -0.218167E-07  0.118E-04    0.39     268.2  T
     SCC iter.                  ...        0 min,  0.004 sec
     gradient                   ...        0 min,  0.000 sec
 * total energy  :   -10.0647167 Eh     change       -0.1865065E+00 Eh
   gradient norm :     0.2646879 Eh/α   predicted    -0.1748714E+00 (  -6.24%)
   displ. norm   :     0.9331283 α      lambda       -0.2435218E+00
   maximum displ.:     0.5533983 α      in ANC's #21, #24, #17, ...

........................................................................
.............................. CYCLE    3 ..............................
........................................................................
   1     -9.9855869 -0.998559E+01  0.699E+00    0.43       0.0  T
   2     -8.9805556  0.100503E+01  0.122E+01    1.82       1.0  T
   3     -9.8668177 -0.886262E+00  0.531E+00    2.34       1.0  T
   4     -5.0403454  0.482647E+01  0.137E+01    0.26       1.0  T
   5    -10.1084270 -0.506808E+01  0.525E+00    0.40       1.0  T
   6    -10.2298721 -0.121445E+00  0.380E+00    0.78       1.0  T
   7    -10.1143628  0.115509E+00  0.406E+00    1.16       1.0  T
   8    -10.2033968 -0.890341E-01  0.356E+00    0.92       1.0  T
   9    -10.2333468 -0.299499E-01  0.308E+00    0.84       1.0  T
  10    -10.3919226 -0.158576E+00  0.160E+00    0.41       1.0  T
  11    -10.3862693  0.565324E-02  0.175E+00    0.40       1.0  T
  12    -10.3909848 -0.471550E-02  0.769E-01    0.46       1.0  T
  13    -10.3897138  0.127107E-02  0.673E-01    0.47       1.0  T
  14    -10.3923162 -0.260248E-02  0.617E-01    0.46       1.0  T
  15    -10.3884553  0.386088E-02  0.646E-01    0.48       1.0  T
  16    -10.3950686 -0.661323E-02  0.518E-01    0.46       1.0  T
  17    -10.3943626  0.706027E-03  0.412E-01    0.47       1.0  T
  18    -10.3931674  0.119514E-02  0.372E-01    0.48       1.0  T
  19    -10.3938421 -0.674645E-03  0.334E-01    0.47       1.0  T
  20    -10.3945537 -0.711642E-03  0.300E-01    0.47       1.0  T
  21    -10.3950169 -0.463226E-03  0.267E-01    0.47       1.0  T
  22    -10.3955363 -0.519404E-03  0.210E-01    0.47       1.0  T
  23    -10.3959157 -0.379367E-03  0.149E-01    0.46       1.0  T
  24    -10.3960782 -0.162533E-03  0.941E-02    0.46       1.0  T
  25    -10.3961181 -0.399001E-04  0.476E-02    0.46       1.0  T
  26    -10.3961214 -0.325503E-05  0.211E-02    0.46       1.5  T
  27    -10.3961216 -0.183654E-06  0.919E-03    0.46       3.4  T
  28    -10.3961216 -0.605041E-08  0.323E-03    0.46       9.8  T
  29    -10.3961216  0.942558E-08  0.148E-03    0.46      21.4  T
  30    -10.3961216 -0.281635E-07  0.629E-04    0.46      50.2  T
  31    -10.3961216 -0.668951E-08  0.354E-04    0.46      89.2  T
     SCC iter.                  ...        0 min,  0.006 sec
     gradient                   ...        0 min,  0.000 sec
 * total energy  :   -10.2408977 Eh     change       -0.1761810E+00 Eh
   gradient norm :     0.1530360 Eh/α   predicted    -0.2277816E+00 (  29.29%)
   displ. norm   :     0.7337996 α      lambda       -0.9350986E-01
   maximum displ.:     0.2971425 α      in ANC's #8, #24, #13, ...

........................................................................
.............................. CYCLE    4 ..............................
........................................................................
   1    -10.3897324 -0.103897E+02  0.403E+00    0.68       0.0  T
   2     -9.7654797  0.624253E+00  0.686E+00    2.53       1.0  T
   3    -10.1600780 -0.394598E+00  0.556E+00    0.70       1.0  T
   4    -10.3738778 -0.213800E+00  0.306E+00    0.88       1.0  T
   5    -10.4604498 -0.865720E-01  0.145E+00    0.76       1.0  T
   6    -10.4464129  0.140369E-01  0.190E+00    0.81       1.0  T
   7    -10.4452340  0.117893E-02  0.177E+00    0.82       1.0  T
   8    -10.4606408 -0.154068E-01  0.124E+00    0.79       1.0  T
   9    -10.4684109 -0.777010E-02  0.817E-01    0.78       1.0  T
  10    -10.4691320 -0.721070E-03  0.759E-01    0.78       1.0  T
  11    -10.4694769 -0.344879E-03  0.710E-01    0.78       1.0  T
  12    -10.4727863 -0.330944E-02  0.312E-01    0.77       1.0  T
  13    -10.4733869 -0.600631E-03  0.170E-01    0.77       1.0  T
  14    -10.4736264 -0.239489E-03  0.316E-02    0.77       1.0  T
  15    -10.4736311 -0.464064E-05  0.176E-02    0.77       1.8  T
  16    -10.4736307  0.368929E-06  0.144E-02    0.77       2.2  T
  17    -10.4736308 -0.737742E-07  0.124E-02    0.77       2.6  T
  18    -10.4736320 -0.125122E-05  0.353E-03    0.77       9.0  T
  19    -10.4736321 -0.423398E-07  0.287E-03    0.77      11.0  T
  20    -10.4736321 -0.478457E-07  0.142E-03    0.77      22.3  T
  21    -10.4736321 -0.152321E-07  0.488E-04    0.77      64.8  T
  22    -10.4736321 -0.191492E-08  0.146E-04    0.77     216.2  T
     SCC iter.                  ...        0 min,  0.004 sec
     gradient                   ...        0 min,  0.001 sec
 * total energy  :   -10.3076151 Eh     change       -0.6671739E-01 Eh
   gradient norm :     0.1402778 Eh/α   predicted    -0.7193067E-01 (   7.81%)
   displ. norm   :     0.8041350 α      lambda       -0.8856388E-01
   maximum displ.:     0.3735456 α      in ANC's #24, #12, #11, ...

........................................................................
.............................. CYCLE    5 ..............................
........................................................................
   1    -10.4985560 -0.104986E+02  0.350E+00    1.27       0.0  T
   2     -6.1516386  0.434692E+01  0.128E+01    0.32       1.0  T
   3    -10.2511558 -0.409952E+01  0.440E+00    1.97       1.0  T
   4    -10.3762841 -0.125128E+00  0.328E+00    1.62       1.0  T
   5    -10.3113051  0.649790E-01  0.327E+00    1.58       1.0  T
   6    -10.4503126 -0.139007E+00  0.189E+00    1.40       1.0  T
   7    -10.4716935 -0.213810E-01  0.172E+00    1.32       1.0  T
   8    -10.4810841 -0.939053E-02  0.155E+00    1.31       1.0  T
   9    -10.5134337 -0.323497E-01  0.110E+00    1.18       1.0  T
  10    -10.5246798 -0.112461E-01  0.788E-01    1.14       1.0  T
  11    -10.5249685 -0.288727E-03  0.760E-01    1.14       1.0  T
  12    -10.5313897 -0.642117E-02  0.283E-01    1.12       1.0  T
  13    -10.5313324  0.572940E-04  0.287E-01    1.12       1.0  T
  14    -10.5327367 -0.140426E-02  0.517E-02    1.11       1.0  T
  15    -10.5327206  0.160506E-04  0.545E-02    1.10       1.0  T
  16    -10.5327140  0.662218E-05  0.398E-02    1.11       1.0  T
  17    -10.5327427 -0.287295E-04  0.116E-02    1.11       2.7  T
  18    -10.5327432 -0.492067E-06  0.526E-03    1.11       6.0  T
  19    -10.5327435 -0.257417E-06  0.177E-03    1.11      17.9  T
  20    -10.5327435 -0.432412E-07  0.150E-03    1.11      21.0  T
  21    -10.5327436 -0.245316E-07  0.535E-04    1.11      59.1  T
  22    -10.5327436 -0.356762E-08  0.578E-05    1.11     547.3  T
     SCC iter.                  ...        0 min,  0.004 sec
     gradient                   ...        0 min,  0.001 sec
 * total energy  :   -10.3667529 Eh     change       -0.5913779E-01 Eh
   gradient norm :     0.1072363 Eh/α   predicted    -0.7291610E-01 (  23.30%)
   displ. norm   :     0.7791989 α      lambda       -0.6410707E-01
   maximum displ.:     0.4279094 α      in ANC's #12, #24, #15, ...

........................................................................
.............................. CYCLE    6 ..............................
........................................................................
   1    -10.6365389 -0.106365E+02  0.246E+00    1.27       0.0  T
   2    -10.4742112  0.162328E+00  0.377E+00    1.81       1.0  T
   3    -10.5357562 -0.615450E-01  0.304E+00    1.08       1.0  T
   4    -10.6031941 -0.674379E-01  0.208E+00    1.45       1.0  T
   5    -10.6447104 -0.415163E-01  0.515E-01    1.30       1.0  T
   6    -10.6470922 -0.238176E-02  0.294E-01    1.32       1.0  T
   7    -10.6476517 -0.559520E-03  0.186E-01    1.31       1.0  T
   8    -10.6473538  0.297866E-03  0.187E-01    1.30       1.0  T
   9    -10.6476588 -0.305023E-03  0.640E-02    1.32       1.0  T
  10    -10.6476183  0.405293E-04  0.827E-02    1.32       1.0  T
  11    -10.6476809 -0.625450E-04  0.194E-02    1.31       1.6  T
  12    -10.6476857 -0.485720E-05  0.300E-03    1.31      10.5  T
  13    -10.6476857  0.462897E-07  0.235E-03    1.31      13.4  T
  14    -10.6476857 -0.137684E-07  0.202E-03    1.31      15.7  T
  15    -10.6476857 -0.483704E-07  0.548E-05    1.31     577.1  T
  16    -10.6476857 -0.704681E-11  0.121E-05    1.31    2604.7  T
     SCC iter.                  ...        0 min,  0.003 sec
     gradient                   ...        0 min,  0.000 sec
 * total energy  :   -10.3920228 Eh     change       -0.2526988E-01 Eh
   gradient norm :     0.1432290 Eh/α   predicted    -0.5151490E-01 ( 103.86%)
   displ. norm   :     0.6128301 α      lambda       -0.5500403E-01
   maximum displ.:     0.3200805 α      in ANC's #8, #17, #14, ...

........................................................................
.............................. CYCLE    7 ..............................
........................................................................
   1    -10.5853129 -0.105853E+02  0.311E+00    1.26       0.0  T
   2     -7.3254493  0.325986E+01  0.118E+01    0.18       1.0  T
   3    -10.5191559 -0.319371E+01  0.250E+00    1.53       1.0  T
   4    -10.5299065 -0.107507E-01  0.321E+00    0.93       1.0  T
   5    -10.5615856 -0.316791E-01  0.232E+00    0.91       1.0  T
   6    -10.5750632 -0.134776E-01  0.185E+00    0.95       1.0  T
   7    -10.6059959 -0.309327E-01  0.683E-01    1.00       1.0  T
   8    -10.6140971 -0.810125E-02  0.303E-01    1.08       1.0  T
   9    -10.6113896  0.270753E-02  0.522E-01    1.12       1.0  T
  10    -10.6112533  0.136290E-03  0.426E-01    1.12       1.0  T
  11    -10.6106000  0.653243E-03  0.406E-01    1.13       1.0  T
  12    -10.6139058 -0.330571E-02  0.262E-01    1.09       1.0  T
  13    -10.6140578 -0.152034E-03  0.214E-01    1.09       1.0  T
  14    -10.6142478 -0.189994E-03  0.985E-02    1.09       1.0  T
  15    -10.6143481 -0.100325E-03  0.585E-02    1.09       1.0  T
  16    -10.6143729 -0.248001E-04  0.183E-02    1.08       1.7  T
  17    -10.6143783 -0.537447E-05  0.717E-03    1.08       4.4  T
  18    -10.6143785 -0.250934E-06  0.108E-03    1.08      29.4  T
  19    -10.6143785 -0.592570E-08  0.517E-04    1.08      61.1  T
  20    -10.6143785 -0.738874E-09  0.155E-04    1.08     204.7  T
     SCC iter.                  ...        0 min,  0.003 sec
     gradient                   ...        0 min,  0.001 sec
 * total energy  :   -10.4239077 Eh     change       -0.3188489E-01 Eh
   gradient norm :     0.1179273 Eh/α   predicted    -0.3783069E-01 (  18.65%)
   displ. norm   :     0.7464324 α      lambda       -0.5582022E-01
   maximum displ.:     0.4334075 α      in ANC's #8, #14, #11, ...

........................................................................
.............................. CYCLE    8 ..............................
........................................................................
   1    -10.5514878 -0.105515E+02  0.365E+00    1.33       0.0  T
   2      1.3426233  0.118941E+02  0.174E+01    0.38       1.0  T
   3    -10.5774708 -0.119201E+02  0.222E+00    1.03       1.0  T
   4    -10.5567479  0.207229E-01  0.248E+00    0.90       1.0  T
   5    -10.5036520  0.530959E-01  0.230E+00    1.59       1.0  T
   6    -10.6140977 -0.110446E+00  0.816E-01    1.01       1.0  T
   7    -10.6075829  0.651483E-02  0.563E-01    1.09       1.0  T
   8    -10.6021884  0.539448E-02  0.608E-01    1.13       1.0  T
   9    -10.6079486 -0.576016E-02  0.502E-01    1.10       1.0  T
  10    -10.6127921 -0.484350E-02  0.531E-01    1.06       1.0  T
  11    -10.6129306 -0.138551E-03  0.523E-01    1.06       1.0  T
  12    -10.6133288 -0.398214E-03  0.418E-01    1.05       1.0  T
  13    -10.6135559 -0.227030E-03  0.376E-01    1.05       1.0  T
  14    -10.6139740 -0.418178E-03  0.329E-01    1.04       1.0  T
  15    -10.6146177 -0.643646E-03  0.244E-01    1.03       1.0  T
  16    -10.6153028 -0.685128E-03  0.654E-02    1.01       1.0  T
  17    -10.6152860  0.168170E-04  0.340E-02    1.00       1.0  T
  18    -10.6152244  0.616414E-04  0.688E-02    1.00       1.0  T
  19    -10.6153020 -0.776578E-04  0.447E-02    1.00       1.0  T
  20    -10.6153215 -0.194877E-04  0.236E-02    1.00       1.3  T
  21    -10.6153256 -0.412811E-05  0.948E-03    1.01       3.3  T
  22    -10.6153263 -0.679137E-06  0.344E-03    1.01       9.2  T
  23    -10.6153264 -0.144012E-06  0.903E-04    1.01      35.0  T
  24    -10.6153265 -0.111755E-07  0.218E-04    1.01     144.8  T
     SCC iter.                  ...        0 min,  0.004 sec
     gradient                   ...        0 min,  0.000 sec
 * total energy  :   -10.4451854 Eh     change       -0.2127770E-01 Eh
   gradient norm :     0.1127237 Eh/α   predicted    -0.4346055E-01 ( 104.25%)
   displ. norm   :     0.4036176 α      lambda       -0.3545461E-01
   maximum displ.:     0.2244053 α      in ANC's #8, #14, #13, ...

........................................................................
.............................. CYCLE    9 ..............................
........................................................................
   1    -10.6086391 -0.106086E+02  0.171E+00    1.14       0.0  T
   2    -10.5333788  0.752603E-01  0.254E+00    1.57       1.0  T
   3    -10.3939093  0.139470E+00  0.349E+00    0.82       1.0  T
   4    -10.5485706 -0.154661E+00  0.211E+00    1.55       1.0  T
   5    -10.6152422 -0.666716E-01  0.431E-01    1.20       1.0  T
   6    -10.6126586  0.258355E-02  0.573E-01    1.24       1.0  T
   7    -10.6112073  0.145132E-02  0.611E-01    1.25       1.0  T
   8    -10.6142928 -0.308547E-02  0.398E-01    1.22       1.0  T
   9    -10.6160458 -0.175305E-02  0.201E-01    1.20       1.0  T
  10    -10.6163915 -0.345705E-03  0.107E-01    1.19       1.0  T
  11    -10.6164859 -0.943615E-04  0.440E-02    1.19       1.0  T
  12    -10.6165104 -0.245186E-04  0.165E-02    1.18       1.9  T
  13    -10.6165118 -0.142071E-05  0.103E-02    1.18       3.1  T
  14    -10.6165132 -0.139105E-05  0.345E-03    1.18       9.2  T
  15    -10.6165134 -0.131529E-06  0.460E-04    1.18      68.8  T
  16    -10.6165134 -0.770317E-09  0.224E-04    1.18     141.0  T
     SCC iter.                  ...        0 min,  0.003 sec
     gradient                   ...        0 min,  0.000 sec
 * total energy  :   -10.4460012 Eh     change       -0.8157969E-03 Eh
   gradient norm :     0.1383980 Eh/α   predicted    -0.2061522E-01 (2427.00%)
   displ. norm   :     0.5246953 α      lambda       -0.4346671E-01
   maximum displ.:     0.2900253 α      in ANC's #2, #12, #6, ...

........................................................................
.............................. CYCLE   10 ..............................
........................................................................
   1    -10.6309524 -0.106310E+02  0.154E+00    1.18       0.0  T
   2    -10.3936390  0.237313E+00  0.379E+00    2.34       1.0  T
   3    -10.6425503 -0.248911E+00  0.104E+00    1.37       1.0  T
   4    -10.6366241  0.592618E-02  0.107E+00    1.44       1.0  T
   5    -10.6447523 -0.812817E-02  0.615E-01    1.17       1.0  T
   6    -10.6507900 -0.603768E-02  0.319E-01    1.25       1.0  T
   7    -10.6497767  0.101332E-02  0.363E-01    1.23       1.0  T
   8    -10.6510087 -0.123202E-02  0.192E-01    1.24       1.0  T
   9    -10.6514513 -0.442575E-03  0.665E-02    1.26       1.0  T
  10    -10.6514910 -0.396775E-04  0.264E-02    1.27       1.2  T
  11    -10.6514778  0.131085E-04  0.339E-02    1.27       1.0  T
  12    -10.6514916 -0.137787E-04  0.509E-03    1.27       6.2  T
  13    -10.6514919 -0.268871E-06  0.130E-03    1.27      24.4  T
  14    -10.6514919  0.367212E-07  0.171E-03    1.27      18.5  T
  15    -10.6514919 -0.330608E-07  0.514E-04    1.27      61.5  T
  16    -10.6514919 -0.318003E-08  0.298E-04    1.27     106.1  T
     SCC iter.                  ...        0 min,  0.002 sec
     gradient                   ...        0 min,  0.000 sec
 * total energy  :   -10.4375336 Eh     change        0.8467588E-02 Eh
   gradient norm :     0.1367301 Eh/α   predicted    -0.2771665E-01 (-427.33%)
   displ. norm   :     0.4148591 α      lambda       -0.4270304E-01
   maximum displ.:     0.2527814 α      in ANC's #14, #1, #12, ...

........................................................................
.............................. CYCLE   11 ..............................
........................................................................
   1    -10.6672717 -0.106673E+02  0.178E+00    1.11       0.0  T
   2    -10.6585241  0.874764E-02  0.148E+00    1.07       1.0  T
   3    -10.6200070  0.385171E-01  0.175E+00    1.37       1.0  T
   4     -9.8470832  0.772924E+00  0.766E+00    0.69       1.0  T
   5    -10.6493540 -0.802271E+00  0.144E+00    1.00       1.0  T
   6    -10.6628761 -0.135221E-01  0.813E-01    1.03       1.0  T
   7    -10.6689805 -0.610437E-02  0.421E-01    1.05       1.0  T
   8    -10.6712608 -0.228029E-02  0.847E-02    1.10       1.0  T
   9    -10.6713168 -0.560244E-04  0.407E-02    1.09       1.0  T
  10    -10.6713097  0.707174E-05  0.371E-02    1.09       1.0  T
  11    -10.6713259 -0.161389E-04  0.646E-03    1.09       4.9  T
  12    -10.6713255  0.357229E-06  0.532E-03    1.09       5.9  T
  13    -10.6713260 -0.430118E-06  0.141E-03    1.09      22.4  T
  14    -10.6713260 -0.972507E-08  0.658E-04    1.09      48.0  T
  15    -10.6713260  0.152962E-08  0.417E-04    1.09      75.8  T
     SCC iter.                  ...        0 min,  0.002 sec
     gradient                   ...        0 min,  0.001 sec
 * total energy  :   -10.4558789 Eh     change       -0.1834532E-01 Eh
   gradient norm :     0.1098966 Eh/α   predicted    -0.2502629E-01 (  36.42%)
   displ. norm   :     0.4159653 α      lambda       -0.3435890E-01
   maximum displ.:     0.2611956 α      in ANC's #11, #21, #13, ...

........................................................................
.............................. CYCLE   12 ..............................
........................................................................
   1    -10.5876213 -0.105876E+02  0.209E+00    1.36       0.0  T
   2     -7.1220382  0.346558E+01  0.103E+01    0.38       1.0  T
   3    -10.3882137 -0.326618E+01  0.352E+00    2.32       1.0  T
   4    -10.3917994 -0.358568E-02  0.340E+00    2.31       1.0  T
   5    -10.4124687 -0.206693E-01  0.292E+00    2.04       1.0  T
   6    -10.5096701 -0.972014E-01  0.197E+00    1.71       1.0  T
   7    -10.5179054 -0.823536E-02  0.189E+00    1.68       1.0  T
   8    -10.5503677 -0.324622E-01  0.148E+00    1.54       1.0  T
   9    -10.5816753 -0.313077E-01  0.105E+00    1.40       1.0  T
  10    -10.5856907 -0.401539E-02  0.986E-01    1.38       1.0  T
  11    -10.5853963  0.294464E-03  0.992E-01    1.38       1.0  T
  12    -10.6115222 -0.261259E-01  0.114E-01    1.19       1.0  T
  13    -10.6098194  0.170278E-02  0.248E-01    1.23       1.0  T
  14    -10.6115254 -0.170596E-02  0.314E-02    1.20       1.0  T
  15    -10.6112715  0.253921E-03  0.973E-02    1.21       1.0  T
  16    -10.6114879 -0.216428E-03  0.402E-02    1.20       1.0  T
  17    -10.6115259 -0.380079E-04  0.948E-03    1.20       3.3  T
  18    -10.6115269 -0.102660E-05  0.364E-03    1.19       8.7  T
  19    -10.6115271 -0.132180E-06  0.219E-03    1.19      14.4  T
  20    -10.6115271 -0.639692E-07  0.632E-04    1.19      50.0  T
  21    -10.6115271 -0.140362E-08  0.534E-04    1.19      59.2  T
     SCC iter.                  ...        0 min,  0.004 sec
     gradient                   ...        0 min,  0.001 sec
 * total energy  :   -10.4475671 Eh     change        0.8311822E-02 Eh
   gradient norm :     0.1469636 Eh/α   predicted    -0.2015195E-01 (-342.45%)
   displ. norm   :     0.2420893 α      lambda       -0.2956102E-01
   maximum displ.:     0.1251504 α      in ANC's #11, #21, #24, ...

........................................................................
.............................. CYCLE   13 ..............................
........................................................................
   1    -10.6303573 -0.106304E+02  0.139E+00    1.11       0.0  T
   2    -10.4120321  0.218325E+00  0.352E+00    2.35       1.0  T
   3    -10.5871873 -0.175155E+00  0.215E+00    1.04       1.0  T
   4    -10.6351459 -0.479586E-01  0.887E-01    1.11       1.0  T
   5    -10.6432216 -0.807572E-02  0.526E-01    1.21       1.0  T
   6    -10.6425428  0.678838E-03  0.520E-01    1.22       1.0  T
   7    -10.6436336 -0.109078E-02  0.380E-01    1.21       1.0  T
   8    -10.6445542 -0.920654E-03  0.173E-01    1.20       1.0  T
   9    -10.6446924 -0.138190E-03  0.110E-01    1.19       1.0  T
  10    -10.6448094 -0.116947E-03  0.320E-02    1.19       1.0  T
  11    -10.6447653  0.440285E-04  0.630E-02    1.19       1.0  T
  12    -10.6448130 -0.476937E-04  0.352E-03    1.19       9.0  T
  13    -10.6448131 -0.280600E-07  0.211E-03    1.19      15.0  T
  14    -10.6448131  0.168506E-08  0.155E-03    1.19      20.3  T
  15    -10.6448131 -0.132285E-07  0.845E-04    1.19      37.4  T
  16    -10.6448131 -0.670118E-08  0.102E-04    1.19     309.1  T
     SCC iter.                  ...        0 min,  0.003 sec
     gradient                   ...        0 min,  0.000 sec
 * total energy  :   -10.4639099 Eh     change       -0.1634279E-01 Eh
   gradient norm :     0.0322059 Eh/α   predicted    -0.1564676E-01 (  -4.26%)
   displ. norm   :     0.3051238 α      lambda       -0.6302018E-02
   maximum displ.:     0.1954181 α      in ANC's #1, #24, #6, ...

........................................................................
.............................. CYCLE   14 ..............................
........................................................................
   1    -10.6833054 -0.106833E+02  0.110E+00    1.19       0.0  T
   2    -10.5281940  0.155111E+00  0.327E+00    2.03       1.0  T
   3    -10.6896383 -0.161444E+00  0.678E-01    1.29       1.0  T
   4    -10.6766800  0.129583E-01  0.105E+00    1.37       1.0  T
   5    -10.6910575 -0.143774E-01  0.209E-01    1.27       1.0  T
   6    -10.6914076 -0.350139E-03  0.123E-01    1.26       1.0  T
   7    -10.6913656  0.420509E-04  0.126E-01    1.25       1.0  T
   8    -10.6914538 -0.881852E-04  0.314E-02    1.26       1.0  T
   9    -10.6914453  0.842493E-05  0.411E-02    1.26       1.0  T
  10    -10.6914603 -0.150110E-04  0.802E-03    1.26       3.9  T
  11    -10.6914603  0.519010E-07  0.412E-03    1.26       7.7  T
  12    -10.6914604 -0.964088E-07  0.140E-03    1.26      22.6  T
  13    -10.6914604 -0.157975E-07  0.332E-04    1.26      95.3  T
  14    -10.6914604  0.128525E-09  0.268E-04    1.26     118.0  T
     SCC iter.                  ...        0 min,  0.002 sec
     gradient                   ...        0 min,  0.001 sec
 * total energy  :   -10.4610999 Eh     change        0.2809994E-02 Eh
   gradient norm :     0.0762922 Eh/α   predicted    -0.3444369E-02 (-222.58%)
   displ. norm   :     0.2139563 α      lambda       -0.1063006E-01
   maximum displ.:     0.1428974 α      in ANC's #2, #13, #7, ...

........................................................................
.............................. CYCLE   15 ..............................
........................................................................
   1    -10.6567144 -0.106567E+02  0.104E+00    1.29       0.0  T
   2     -9.8762906  0.780424E+00  0.687E+00    0.71       1.0  T
   3    -10.6503286 -0.774038E+00  0.103E+00    1.33       1.0  T
   4    -10.6578256 -0.749705E-02  0.742E-01    1.26       1.0  T
   5    -10.6602410 -0.241534E-02  0.456E-01    1.27       1.0  T
   6    -10.6628607 -0.261973E-02  0.252E-01    1.24       1.0  T
   7    -10.6629342 -0.734995E-04  0.238E-01    1.24       1.0  T
   8    -10.6634210 -0.486745E-03  0.141E-01    1.23       1.0  T
   9    -10.6636036 -0.182605E-03  0.663E-02    1.22       1.0  T
  10    -10.6635132  0.903330E-04  0.987E-02    1.23       1.0  T
  11    -10.6636486 -0.135395E-03  0.259E-02    1.22       1.2  T
  12    -10.6636505 -0.191990E-05  0.229E-02    1.22       1.4  T
  13    -10.6636584 -0.781190E-05  0.640E-04    1.22      49.4  T
  14    -10.6636583  0.215739E-07  0.125E-03    1.22      25.2  T
  15    -10.6636584 -0.221349E-07  0.103E-04    1.22     307.0  T
  16    -10.6636584  0.422103E-09  0.168E-04    1.22     187.8  T
     SCC iter.                  ...        0 min,  0.003 sec
     gradient                   ...        0 min,  0.000 sec
 * total energy  :   -10.4661057 Eh     change       -0.5005854E-02 Eh
   gradient norm :     0.0216159 Eh/α   predicted    -0.5558335E-02 (  11.04%)
   displ. norm   :     0.1872810 α      lambda       -0.2176128E-02
   maximum displ.:     0.0999332 α      in ANC's #5, #2, #15, ...

........................................................................
.............................. CYCLE   16 ..............................
........................................................................
   1    -10.6594216 -0.106594E+02  0.743E-01    1.19       0.0  T
   2    -10.6320291  0.273925E-01  0.132E+00    1.42       1.0  T
   3    -10.5968490  0.351802E-01  0.228E+00    1.04       1.0  T
   4    -10.6485123 -0.516634E-01  0.945E-01    1.13       1.0  T
   5    -10.6601669 -0.116546E-01  0.158E-01    1.21       1.0  T
   6    -10.6599429  0.224003E-03  0.213E-01    1.24       1.0  T
   7    -10.6600408 -0.979302E-04  0.187E-01    1.24       1.0  T
   8    -10.6602500 -0.209190E-03  0.102E-01    1.23       1.0  T
   9    -10.6603233 -0.732717E-04  0.672E-02    1.23       1.0  T
  10    -10.6603670 -0.436775E-04  0.270E-02    1.22       1.2  T
  11    -10.6603738 -0.686430E-05  0.899E-03    1.22       3.5  T
  12    -10.6603746 -0.742249E-06  0.293E-03    1.22      10.8  T
  13    -10.6603746 -0.767197E-07  0.791E-04    1.22      40.0  T
  14    -10.6603747 -0.281772E-08  0.288E-04    1.22     109.7  T
     SCC iter.                  ...        0 min,  0.003 sec
     gradient                   ...        0 min,  0.000 sec
 * total energy  :   -10.4664510 Eh     change       -0.3452620E-03 Eh
   gradient norm :     0.0235252 Eh/α   predicted    -0.1126228E-02 ( 226.20%)
   displ. norm   :     0.2648500 α      lambda       -0.2273210E-02
   maximum displ.:     0.1709699 α      in ANC's #1, #2, #3, ...

........................................................................
.............................. CYCLE   17 ..............................
........................................................................
   1    -10.6537351 -0.106537E+02  0.536E-01    1.24       0.0  T
   2    -10.6340464  0.196886E-01  0.127E+00    1.43       1.0  T
   3    -10.6535954 -0.195490E-01  0.357E-01    1.23       1.0  T
   4    -10.6532382  0.357205E-03  0.306E-01    1.27       1.0  T
   5    -10.6542553 -0.101708E-02  0.601E-02    1.26       1.0  T
   6    -10.6542105  0.447639E-04  0.790E-02    1.27       1.0  T
   7    -10.6542636 -0.530677E-04  0.255E-02    1.26       1.2  T
   8    -10.6542691 -0.552106E-05  0.123E-02    1.26       2.6  T
   9    -10.6542703 -0.120548E-05  0.841E-03    1.26       3.8  T
  10    -10.6542708 -0.509634E-06  0.131E-03    1.26      24.2  T
  11    -10.6542708 -0.120091E-07  0.529E-04    1.26      59.8  T
  12    -10.6542708 -0.101314E-08  0.241E-04    1.26     131.3  T
     SCC iter.                  ...        0 min,  0.002 sec
     gradient                   ...        0 min,  0.001 sec
 * total energy  :   -10.4670204 Eh     change       -0.5693653E-03 Eh
   gradient norm :     0.0291749 Eh/α   predicted    -0.1216329E-02 ( 113.63%)
   displ. norm   :     0.2435854 α      lambda       -0.3083372E-02
   maximum displ.:     0.1043705 α      in ANC's #6, #3, #24, ...

........................................................................
.............................. CYCLE   18 ..............................
........................................................................
   1    -10.6617087 -0.106617E+02  0.110E+00    1.32       0.0  T
   2    -10.3426084  0.319100E+00  0.429E+00    0.73       1.0  T
   3    -10.5944779 -0.251870E+00  0.233E+00    1.70       1.0  T
   4    -10.6232811 -0.288031E-01  0.176E+00    1.55       1.0  T
   5    -10.6563528 -0.330717E-01  0.793E-01    1.36       1.0  T
   6    -10.6585530 -0.220026E-02  0.706E-01    1.34       1.0  T
   7    -10.6587976 -0.244580E-03  0.686E-01    1.34       1.0  T
   8    -10.6639125 -0.511492E-02  0.320E-01    1.29       1.0  T
   9    -10.6642123 -0.299761E-03  0.277E-01    1.29       1.0  T
  10    -10.6642274 -0.150985E-04  0.264E-01    1.29       1.0  T
  11    -10.6650999 -0.872515E-03  0.700E-02    1.26       1.0  T
  12    -10.6651575 -0.576157E-04  0.251E-02    1.26       1.3  T
  13    -10.6651649 -0.735025E-05  0.585E-03    1.26       5.4  T
  14    -10.6651653 -0.438534E-06  0.675E-04    1.26      46.8  T
  15    -10.6651653  0.185626E-07  0.121E-03    1.26      26.1  T
  16    -10.6651653 -0.166954E-07  0.468E-04    1.26      67.6  T
     SCC iter.                  ...        0 min,  0.002 sec
     gradient                   ...        0 min,  0.000 sec
 * total energy  :   -10.4679120 Eh     change       -0.8916813E-03 Eh
   gradient norm :     0.0253450 Eh/α   predicted    -0.1633160E-02 (  83.16%)
   displ. norm   :     0.1801986 α      lambda       -0.2282068E-02
   maximum displ.:     0.1061563 α      in ANC's #5, #6, #24, ...

........................................................................
.............................. CYCLE   19 ..............................
........................................................................
   1    -10.6679023 -0.106679E+02  0.536E-01    1.24       0.0  T
   2    -10.6672578  0.644521E-03  0.431E-01    1.28       1.0  T
   3    -10.6179193  0.493385E-01  0.184E+00    1.03       1.0  T
   4    -10.6653482 -0.474289E-01  0.426E-01    1.30       1.0  T
   5    -10.6676333 -0.228514E-02  0.166E-01    1.28       1.0  T
   6    -10.6678513 -0.217975E-03  0.103E-01    1.27       1.0  T
   7    -10.6678318  0.195501E-04  0.970E-02    1.27       1.0  T
   8    -10.6679312 -0.994378E-04  0.419E-02    1.27       1.0  T
   9    -10.6679520 -0.207856E-04  0.195E-02    1.26       1.6  T
  10    -10.6679556 -0.366415E-05  0.735E-03    1.26       4.3  T
  11    -10.6679559 -0.235967E-06  0.575E-03    1.26       5.5  T
  12    -10.6679562 -0.351490E-06  0.192E-03    1.26      16.5  T
  13    -10.6679563 -0.416797E-07  0.136E-04    1.26     233.3  T
  14    -10.6679563 -0.323759E-10  0.120E-04    1.26     264.0  T
     SCC iter.                  ...        0 min,  0.002 sec
     gradient                   ...        0 min,  0.000 sec
 * total energy  :   -10.4678557 Eh     change        0.5636124E-04 Eh
   gradient norm :     0.0363670 Eh/α   predicted    -0.1178086E-02 (*******%)
   displ. norm   :     0.2384761 α      lambda       -0.3742971E-02
   maximum displ.:     0.1072630 α      in ANC's #11, #3, #15, ...

........................................................................
.............................. CYCLE   20 ..............................
........................................................................
   1    -10.6566917 -0.106567E+02  0.119E+00    1.16       0.0  T
   2    -10.5188791  0.137813E+00  0.304E+00    2.01       1.0  T
   3    -10.6002024 -0.813234E-01  0.242E+00    1.03       1.0  T
   4    -10.6495216 -0.493191E-01  0.110E+00    1.13       1.0  T
   5    -10.6617729 -0.122513E-01  0.459E-01    1.28       1.0  T
   6    -10.6614747  0.298192E-03  0.474E-01    1.29       1.0  T
   7    -10.6620099 -0.535125E-03  0.408E-01    1.28       1.0  T
   8    -10.6630643 -0.105448E-02  0.176E-01    1.26       1.0  T
   9    -10.6631703 -0.105968E-03  0.137E-01    1.26       1.0  T
  10    -10.6633225 -0.152207E-03  0.545E-02    1.25       1.0  T
  11    -10.6633396 -0.171354E-04  0.267E-02    1.25       1.2  T
  12    -10.6633459 -0.626901E-05  0.839E-03    1.25       3.8  T
  13    -10.6633466 -0.674348E-06  0.178E-03    1.25      17.8  T
  14    -10.6633466 -0.326162E-07  0.126E-04    1.25     251.8  T
  15    -10.6633466 -0.576108E-10  0.390E-05    1.25     811.1  T
     SCC iter.                  ...        0 min,  0.002 sec
     gradient                   ...        0 min,  0.000 sec
 * total energy  :   -10.4685327 Eh     change       -0.6770295E-03 Eh
   gradient norm :     0.0247980 Eh/α   predicted    -0.1977920E-02 ( 192.15%)
   displ. norm   :     0.1557056 α      lambda       -0.2493772E-02
   maximum displ.:     0.0715888 α      in ANC's #15, #13, #2, ...
 * RMSD in coord.:     1.5676575 α      energy gain  -0.5903225E+00 Eh

generating ANC from model Hessian ...
Using Lindh-Hessian (1995)
 Shifting diagonal of input Hessian by    1.0452344392246670E-002
 Lowest  eigenvalues of input Hessian
    0.010000    0.010020    0.010231    0.010348    0.000000    0.000000
    0.000000    0.000000    0.000000    0.000000    0.010542    0.010593
    0.010964    0.011111    0.011739    0.012086    0.020982    0.046459
 Highest eigenvalues
    0.547508    0.633938    0.832509    1.204546    1.320391    1.599508


........................................................................
.............................. CYCLE   21 ..............................
........................................................................
   1    -10.6552497 -0.106552E+02  0.103E+00    1.39       0.0  T
   2    -10.1682409  0.487009E+00  0.557E+00    0.72       1.0  T
   3    -10.6067908 -0.438550E+00  0.208E+00    1.68       1.0  T
   4    -10.6261328 -0.193420E-01  0.166E+00    1.57       1.0  T
   5    -10.6505488 -0.244161E-01  0.859E-01    1.41       1.0  T
   6    -10.6562561 -0.570724E-02  0.575E-01    1.37       1.0  T
   7    -10.6569530 -0.696885E-03  0.526E-01    1.36       1.0  T
   8    -10.6590775 -0.212448E-02  0.333E-01    1.33       1.0  T
   9    -10.6594038 -0.326340E-03  0.289E-01    1.33       1.0  T
  10    -10.6591055  0.298279E-03  0.315E-01    1.34       1.0  T
  11    -10.6601527 -0.104717E-02  0.134E-01    1.32       1.0  T
  12    -10.6603284 -0.175669E-03  0.575E-02    1.31       1.0  T
  13    -10.6603471 -0.187237E-04  0.413E-02    1.31       1.0  T
  14    -10.6603681 -0.209966E-04  0.423E-03    1.31       7.5  T
  15    -10.6603683 -0.183233E-06  0.159E-03    1.31      19.8  T
  16    -10.6603683 -0.318981E-07  0.128E-04    1.31     246.5  T
  17    -10.6603683 -0.460343E-10  0.520E-05    1.31     607.6  T
     SCC iter.                  ...        0 min,  0.002 sec
     gradient                   ...        0 min,  0.001 sec
 * total energy  :   -10.4692125 Eh     change       -0.6797444E-03 Eh
   gradient norm :     0.0227562 Eh/α   predicted     0.0000000E+00 (-100.00%)
   displ. norm   :     0.2264995 α      lambda       -0.1326179E-02
   maximum displ.:     0.1502638 α      in ANC's #10, #3, #9, ...

........................................................................
.............................. CYCLE   22 ..............................
........................................................................
   1    -10.6650830 -0.106651E+02  0.304E-01    1.28       0.0  T
   2    -10.6625794  0.250357E-02  0.456E-01    1.36       1.0  T
   3    -10.6606088  0.197065E-02  0.597E-01    1.22       1.0  T
   4    -10.6647492 -0.414042E-02  0.167E-01    1.31       1.0  T
   5    -10.6651129 -0.363722E-03  0.575E-02    1.30       1.0  T
   6    -10.6651391 -0.261897E-04  0.361E-02    1.30       1.0  T
   7    -10.6651349  0.421648E-05  0.358E-02    1.30       1.0  T
   8    -10.6651454 -0.105539E-04  0.193E-02    1.30       1.6  T
   9    -10.6651494 -0.398621E-05  0.761E-03    1.30       4.2  T
  10    -10.6651500 -0.535071E-06  0.234E-03    1.30      13.5  T
  11    -10.6651500 -0.562719E-07  0.710E-04    1.30      44.5  T
  12    -10.6651500 -0.480045E-08  0.235E-04    1.30     134.4  T
     SCC iter.                  ...        0 min,  0.002 sec
     gradient                   ...        0 min,  0.001 sec
 * total energy  :   -10.4701790 Eh     change       -0.9665314E-03 Eh
   gradient norm :     0.0089025 Eh/α   predicted    -0.6971067E-03 ( -27.88%)
   displ. norm   :     0.3099144 α      lambda       -0.8130806E-03
   maximum displ.:     0.2091751 α      in ANC's #10, #9, #3, ...

........................................................................
.............................. CYCLE   23 ..............................
........................................................................
   1    -10.6675069 -0.106675E+02  0.382E-01    1.28       0.0  T
   2    -10.6649971  0.250980E-02  0.482E-01    1.35       1.0  T
   3    -10.6580174  0.697961E-02  0.866E-01    1.19       1.0  T
   4    -10.6668285 -0.881107E-02  0.232E-01    1.31       1.0  T
   5    -10.6675159 -0.687417E-03  0.804E-02    1.30       1.0  T
   6    -10.6675728 -0.568784E-04  0.451E-02    1.29       1.0  T
   7    -10.6675640  0.882966E-05  0.436E-02    1.29       1.0  T
   8    -10.6675795 -0.154899E-04  0.238E-02    1.29       1.3  T
   9    -10.6675857 -0.625790E-05  0.711E-03    1.29       4.4  T
  10    -10.6675861 -0.363525E-06  0.211E-03    1.29      15.0  T
  11    -10.6675861 -0.315662E-07  0.108E-03    1.29      29.3  T
  12    -10.6675861 -0.992982E-08  0.459E-04    1.29      68.9  T
  13    -10.6675861 -0.225255E-08  0.716E-05    1.29     441.5  T
     SCC iter.                  ...        0 min,  0.002 sec
     gradient                   ...        0 min,  0.001 sec
 * total energy  :   -10.4707701 Eh     change       -0.5910953E-03 Eh
   gradient norm :     0.0042603 Eh/α   predicted    -0.4455865E-03 ( -24.62%)
   displ. norm   :     0.3238010 α      lambda       -0.4723990E-03
   maximum displ.:     0.1910248 α      in ANC's #10, #9, #6, ...

........................................................................
.............................. CYCLE   24 ..............................
........................................................................
   1    -10.6678136 -0.106678E+02  0.422E-01    1.28       0.0  T
   2    -10.6677249  0.886924E-04  0.292E-01    1.29       1.0  T
   3    -10.6512890  0.164359E-01  0.110E+00    1.16       1.0  T
   4    -10.6659458 -0.146569E-01  0.372E-01    1.33       1.0  T
   5    -10.6677429 -0.179706E-02  0.961E-02    1.30       1.0  T
   6    -10.6678291 -0.862295E-04  0.434E-02    1.29       1.0  T
   7    -10.6678329 -0.380800E-05  0.252E-02    1.29       1.3  T
   8    -10.6678367 -0.376511E-05  0.171E-02    1.29       1.8  T
   9    -10.6678397 -0.301040E-05  0.462E-03    1.29       6.8  T
  10    -10.6678398 -0.718917E-07  0.114E-03    1.29      27.8  T
  11    -10.6678398 -0.331984E-08  0.687E-04    1.29      46.0  T
  12    -10.6678398 -0.336716E-08  0.400E-04    1.29      79.1  T
     SCC iter.                  ...        0 min,  0.001 sec
     gradient                   ...        0 min,  0.000 sec
 * total energy  :   -10.4711401 Eh     change       -0.3699971E-03 Eh
   gradient norm :     0.0067758 Eh/α   predicted    -0.2609605E-03 ( -29.47%)
   displ. norm   :     0.4327725 α      lambda       -0.5067622E-03
   maximum displ.:     0.2386980 α      in ANC's #10, #9, #6, ...

........................................................................
.............................. CYCLE   25 ..............................
........................................................................
   1    -10.6687735 -0.106688E+02  0.582E-01    1.28       0.0  T
   2    -10.6678916  0.881845E-03  0.465E-01    1.25       1.0  T
   3    -10.6367084  0.311832E-01  0.152E+00    1.55       1.0  T
   4    -10.6681546 -0.314462E-01  0.244E-01    1.29       1.0  T
   5    -10.6685170 -0.362389E-03  0.176E-01    1.30       1.0  T
   6    -10.6687280 -0.211016E-03  0.109E-01    1.29       1.0  T
   7    -10.6687575 -0.294934E-04  0.726E-02    1.29       1.0  T
   8    -10.6688305 -0.729729E-04  0.156E-02    1.28       2.0  T
   9    -10.6688295  0.103330E-05  0.169E-02    1.28       1.9  T
  10    -10.6688320 -0.257489E-05  0.569E-03    1.28       5.6  T
  11    -10.6688323 -0.252644E-06  0.318E-03    1.28       9.9  T
  12    -10.6688324 -0.106554E-06  0.309E-04    1.28     102.5  T
  13    -10.6688324 -0.778627E-09  0.440E-05    1.28     718.8  T
     SCC iter.                  ...        0 min,  0.002 sec
     gradient                   ...        0 min,  0.000 sec
 * total energy  :   -10.4714714 Eh     change       -0.3313136E-03 Eh
   gradient norm :     0.0086931 Eh/α   predicted    -0.3008308E-03 (  -9.20%)
   displ. norm   :     0.6638051 α      lambda       -0.8044496E-03
   maximum displ.:     0.3909035 α      in ANC's #9, #6, #10, ...

........................................................................
.............................. CYCLE   26 ..............................
........................................................................
   1    -10.6547311 -0.106547E+02  0.101E+00    1.28       0.0  T
   2    -10.6378137  0.169174E-01  0.128E+00    1.14       1.0  T
   3    -10.6198172  0.179965E-01  0.171E+00    1.56       1.0  T
   4    -10.6530630 -0.332458E-01  0.446E-01    1.29       1.0  T
   5    -10.6537454 -0.682396E-03  0.366E-01    1.31       1.0  T
   6    -10.6541020 -0.356555E-03  0.318E-01    1.31       1.0  T
   7    -10.6550460 -0.943983E-03  0.780E-02    1.28       1.0  T
   8    -10.6551218 -0.757983E-04  0.176E-02    1.27       1.8  T
   9    -10.6551214  0.321369E-06  0.110E-02    1.27       2.9  T
  10    -10.6551225 -0.104310E-05  0.515E-03    1.27       6.1  T
  11    -10.6551228 -0.337126E-06  0.122E-03    1.27      25.8  T
  12    -10.6551228 -0.571426E-08  0.373E-04    1.27      84.7  T
  13    -10.6551228  0.107126E-08  0.381E-04    1.27      83.1  T
     SCC iter.                  ...        0 min,  0.002 sec
     gradient                   ...        0 min,  0.001 sec
 * total energy  :   -10.4709901 Eh     change        0.4812715E-03 Eh
   gradient norm :     0.0270787 Eh/α   predicted    -0.5794679E-03 (-220.40%)
   displ. norm   :     0.2094117 α      lambda       -0.2040242E-02
   maximum displ.:     0.1086628 α      in ANC's #9, #3, #6, ...

........................................................................
.............................. CYCLE   27 ..............................
........................................................................
   1    -10.6668331 -0.106668E+02  0.358E-01    1.28       0.0  T
   2    -10.6652517  0.158133E-02  0.407E-01    1.34       1.0  T
   3    -10.6585828  0.666891E-02  0.806E-01    1.19       1.0  T
   4    -10.6664066 -0.782374E-02  0.197E-01    1.28       1.0  T
   5    -10.6668232 -0.416596E-03  0.739E-02    1.28       1.0  T
   6    -10.6668834 -0.602185E-04  0.302E-02    1.28       1.0  T
   7    -10.6668858 -0.245548E-05  0.184E-02    1.28       1.7  T
   8    -10.6668894 -0.357691E-05  0.324E-03    1.29       9.8  T
   9    -10.6668894  0.493941E-07  0.277E-03    1.29      11.4  T
  10    -10.6668894 -0.545532E-07  0.161E-03    1.29      19.6  T
  11    -10.6668895 -0.247199E-07  0.346E-04    1.29      91.5  T
  12    -10.6668895 -0.810479E-09  0.181E-04    1.29     175.0  T
     SCC iter.                  ...        0 min,  0.003 sec
     gradient                   ...        0 min,  0.000 sec
 * total energy  :   -10.4719293 Eh     change       -0.9391796E-03 Eh
   gradient norm :     0.0070161 Eh/α   predicted    -0.1064856E-02 (  13.38%)
   displ. norm   :     0.1774079 α      lambda       -0.2685193E-03
   maximum displ.:     0.1248102 α      in ANC's #9, #6, #7, ...

........................................................................
.............................. CYCLE   28 ..............................
........................................................................
   1    -10.6680188 -0.106680E+02  0.312E-01    1.29       0.0  T
   2    -10.6675052  0.513584E-03  0.253E-01    1.26       1.0  T
   3    -10.6574654  0.100398E-01  0.905E-01    1.44       1.0  T
   4    -10.6679630 -0.104976E-01  0.905E-02    1.30       1.0  T
   5    -10.6679608  0.217776E-05  0.878E-02    1.30       1.0  T
   6    -10.6679724 -0.116146E-04  0.746E-02    1.30       1.0  T
   7    -10.6680344 -0.619552E-04  0.144E-02    1.29       2.2  T
   8    -10.6680356 -0.115262E-05  0.736E-03    1.29       4.3  T
   9    -10.6680359 -0.323475E-06  0.513E-03    1.29       6.2  T
  10    -10.6680361 -0.201462E-06  0.195E-03    1.29      16.2  T
  11    -10.6680361 -0.387216E-07  0.661E-04    1.29      47.8  T
  12    -10.6680361 -0.397250E-08  0.134E-04    1.29     235.5  T
     SCC iter.                  ...        0 min,  0.002 sec
     gradient                   ...        0 min,  0.000 sec
 * total energy  :   -10.4721935 Eh     change       -0.2642270E-03 Eh
   gradient norm :     0.0057671 Eh/α   predicted    -0.1384872E-03 ( -47.59%)
   displ. norm   :     0.9022824 α      lambda       -0.1513351E-02
   maximum displ.:     0.6234936 α      in ANC's #9, #6, #7, ...

........................................................................
.............................. CYCLE   29 ..............................
........................................................................
   1    -10.6610430 -0.106610E+02  0.165E+00    1.31       0.0  T
   2    -10.6302139  0.308291E-01  0.165E+00    1.09       1.0  T
   3    -10.5430774  0.871365E-01  0.305E+00    2.07       1.0  T
   4    -10.6550065 -0.111929E+00  0.874E-01    1.42       1.0  T
   5    -10.6565159 -0.150942E-02  0.716E-01    1.40       1.0  T
   6    -10.6604015 -0.388562E-02  0.379E-01    1.35       1.0  T
   7    -10.6617906 -0.138907E-02  0.516E-02    1.31       1.0  T
   8    -10.6617941 -0.352722E-05  0.351E-02    1.31       1.0  T
   9    -10.6617967 -0.255189E-05  0.211E-02    1.31       1.5  T
  10    -10.6618018 -0.508837E-05  0.903E-03    1.31       3.5  T
  11    -10.6618027 -0.879093E-06  0.220E-03    1.31      14.4  T
  12    -10.6618027 -0.117589E-07  0.667E-04    1.31      47.4  T
  13    -10.6618027  0.535405E-08  0.759E-04    1.31      41.7  T
     SCC iter.                  ...        0 min,  0.002 sec
     gradient                   ...        0 min,  0.001 sec
 * total energy  :   -10.4730558 Eh     change       -0.8622785E-03 Eh
   gradient norm :     0.0219480 Eh/α   predicted    -0.1372703E-02 (  59.19%)
   displ. norm   :     0.4284782 α      lambda       -0.1883727E-02
   maximum displ.:     0.2795164 α      in ANC's #7, #6, #9, ...

........................................................................
.............................. CYCLE   30 ..............................
........................................................................
   1    -10.6648649 -0.106649E+02  0.766E-01    1.29       0.0  T
   2    -10.6642450  0.619910E-03  0.480E-01    1.26       1.0  T
   3    -10.6207495  0.434955E-01  0.179E+00    1.72       1.0  T
   4    -10.6640229 -0.432734E-01  0.294E-01    1.33       1.0  T
   5    -10.6644527 -0.429809E-03  0.218E-01    1.33       1.0  T
   6    -10.6648254 -0.372752E-03  0.113E-01    1.32       1.0  T
   7    -10.6649402 -0.114778E-03  0.253E-02    1.30       1.3  T
   8    -10.6649444 -0.413038E-05  0.156E-02    1.30       2.0  T
   9    -10.6649425  0.182055E-05  0.164E-02    1.30       1.9  T
  10    -10.6649452 -0.262864E-05  0.823E-03    1.30       3.8  T
  11    -10.6649456 -0.488211E-06  0.404E-03    1.30       7.8  T
  12    -10.6649458 -0.188901E-06  0.834E-04    1.30      37.9  T
  13    -10.6649458 -0.185804E-08  0.241E-04    1.30     131.4  T
     SCC iter.                  ...        0 min,  0.002 sec
     gradient                   ...        0 min,  0.000 sec
 * total energy  :   -10.4746643 Eh     change       -0.1608532E-02 Eh
   gradient norm :     0.0146270 Eh/α   predicted    -0.1114787E-02 ( -30.70%)
   displ. norm   :     0.7761753 α      lambda       -0.3009690E-02
   maximum displ.:     0.4251454 α      in ANC's #7, #10, #6, ...

........................................................................
.............................. CYCLE   31 ..............................
........................................................................
   1    -10.6715312 -0.106715E+02  0.160E+00    1.22       0.0  T
   2    -10.6684159  0.311525E-02  0.124E+00    1.36       1.0  T
   3    -10.3261242  0.342292E+00  0.499E+00    0.58       1.0  T
   4    -10.6586046 -0.332480E+00  0.102E+00    1.41       1.0  T
   5    -10.6719119 -0.133072E-01  0.262E-01    1.26       1.0  T
   6    -10.6715377  0.374214E-03  0.248E-01    1.29       1.0  T
   7    -10.6719282 -0.390593E-03  0.134E-01    1.27       1.0  T
   8    -10.6720469 -0.118694E-03  0.883E-02    1.26       1.0  T
   9    -10.6720758 -0.288315E-04  0.576E-02    1.25       1.0  T
  10    -10.6720764 -0.614080E-06  0.531E-02    1.25       1.0  T
  11    -10.6720783 -0.192917E-05  0.425E-02    1.25       1.0  T
  12    -10.6720906 -0.122798E-04  0.205E-02    1.25       1.5  T
  13    -10.6720945 -0.387070E-05  0.682E-03    1.25       4.6  T
  14    -10.6720949 -0.416943E-06  0.235E-03    1.25      13.4  T
  15    -10.6720949 -0.528930E-07  0.421E-04    1.25      75.1  T
  16    -10.6720949 -0.100698E-08  0.286E-05    1.25    1106.9  T
     SCC iter.                  ...        0 min,  0.003 sec
     gradient                   ...        0 min,  0.000 sec
 * total energy  :   -10.4767993 Eh     change       -0.2134969E-02 Eh
   gradient norm :     0.0266833 Eh/α   predicted    -0.2411446E-02 (  12.95%)
   displ. norm   :     0.5134806 α      lambda       -0.3400435E-02
   maximum displ.:     0.2720269 α      in ANC's #12, #7, #6, ...

........................................................................
.............................. CYCLE   32 ..............................
........................................................................
   1    -10.6763659 -0.106764E+02  0.201E+00    1.23       0.0  T
   2    -10.6758109  0.555065E-03  0.128E+00    1.16       1.0  T
   3    -10.6221787  0.536322E-01  0.187E+00    1.88       1.0  T
   4    -10.6723449 -0.501662E-01  0.598E-01    1.12       1.0  T
   5    -10.6762587 -0.391376E-02  0.203E-01    1.25       1.0  T
   6    -10.6766112 -0.352490E-03  0.121E-01    1.22       1.0  T
   7    -10.6765938  0.173540E-04  0.738E-02    1.20       1.0  T
   8    -10.6766508 -0.569731E-04  0.317E-02    1.21       1.0  T
   9    -10.6766583 -0.746667E-05  0.169E-02    1.21       1.9  T
  10    -10.6766604 -0.216422E-05  0.640E-03    1.21       4.9  T
  11    -10.6766609 -0.498249E-06  0.129E-03    1.21      24.6  T
  12    -10.6766609 -0.469923E-08  0.230E-04    1.21     137.7  T
  13    -10.6766609 -0.151026E-09  0.795E-05    1.21     397.9  T
     SCC iter.                  ...        0 min,  0.002 sec
     gradient                   ...        0 min,  0.000 sec
 * total energy  :   -10.4807208 Eh     change       -0.3921535E-02 Eh
   gradient norm :     0.0536322 Eh/α   predicted    -0.2148501E-02 ( -45.21%)
   displ. norm   :     0.4103085 α      lambda       -0.7141268E-02
   maximum displ.:     0.1688406 α      in ANC's #2, #3, #4, ...

........................................................................
.............................. CYCLE   33 ..............................
........................................................................
   1    -10.6871680 -0.106872E+02  0.178E+00    1.40       0.0  T
   2    -10.6868038  0.364226E-03  0.123E+00    1.36       1.0  T
   3    -10.6553745  0.314292E-01  0.136E+00    1.75       1.0  T
   4    -10.6760025 -0.206280E-01  0.805E-01    1.13       1.0  T
   5    -10.6873828 -0.113803E-01  0.151E-01    1.38       1.0  T
   6    -10.6874197 -0.369239E-04  0.893E-02    1.36       1.0  T
   7    -10.6874570 -0.373278E-04  0.492E-02    1.37       1.0  T
   8    -10.6874678 -0.107954E-04  0.200E-02    1.37       1.6  T
   9    -10.6874721 -0.422222E-05  0.118E-02    1.37       2.7  T
  10    -10.6874727 -0.667541E-06  0.339E-03    1.37       9.3  T
  11    -10.6874726  0.964574E-07  0.307E-03    1.37      10.3  T
  12    -10.6874728 -0.129966E-06  0.749E-04    1.37      42.2  T
  13    -10.6874728 -0.661954E-08  0.213E-04    1.37     148.2  T
     SCC iter.                  ...        0 min,  0.002 sec
     gradient                   ...        0 min,  0.000 sec
 * total energy  :   -10.4878033 Eh     change       -0.7082447E-02 Eh
   gradient norm :     0.0595041 Eh/α   predicted    -0.4171751E-02 ( -41.10%)
   displ. norm   :     0.8228590 α      lambda       -0.2611344E-01
   maximum displ.:     0.3896205 α      in ANC's #14, #13, #16, ...

........................................................................
.............................. CYCLE   34 ..............................
........................................................................
   1    -10.7043499 -0.107043E+02  0.429E+00    2.07       0.0  T
   2    -10.6863383  0.180116E-01  0.327E+00    1.58       1.0  T
   3    -10.2756163  0.410722E+00  0.491E+00    2.63       1.0  T
   4    -10.6631363 -0.387520E+00  0.135E+00    2.24       1.0  T
   5    -10.7067863 -0.436500E-01  0.418E-01    1.93       1.0  T
   6    -10.7075231 -0.736844E-03  0.292E-01    1.87       1.0  T
   7    -10.7072540  0.269139E-03  0.195E-01    1.93       1.0  T
   8    -10.7076289 -0.374898E-03  0.800E-02    1.90       1.0  T
   9    -10.7076338 -0.486320E-05  0.753E-02    1.90       1.0  T
  10    -10.7076364 -0.263150E-05  0.488E-02    1.91       1.0  T
  11    -10.7076381 -0.170141E-05  0.281E-02    1.91       1.1  T
  12    -10.7076466 -0.854041E-05  0.920E-03    1.90       3.4  T
  13    -10.7076480 -0.132530E-05  0.160E-03    1.90      19.8  T
  14    -10.7076479  0.196483E-07  0.208E-03    1.90      15.2  T
  15    -10.7076480 -0.336588E-07  0.681E-04    1.90      46.4  T
  16    -10.7076480 -0.471561E-08  0.296E-05    1.90    1067.7  T
     SCC iter.                  ...        0 min,  0.002 sec
     gradient                   ...        0 min,  0.001 sec
 * total energy  :   -10.4959939 Eh     change       -0.8190603E-02 Eh
   gradient norm :     0.1497218 Eh/α   predicted    -0.2189752E-01 ( 167.35%)
[...]
   3    -10.7242515  0.122135E-04  0.302E-02    2.15       1.0  T
   4    -10.7242632 -0.117222E-04  0.108E-02    2.15       2.9  T
   5    -10.7242632  0.410585E-07  0.917E-03    2.15       3.4  T
   6    -10.7242630  0.200692E-06  0.790E-03    2.15       4.0  T
   7    -10.7242642 -0.125734E-05  0.154E-03    2.15      20.5  T
   8    -10.7242642 -0.199769E-07  0.774E-04    2.15      40.9  T
   9    -10.7242642 -0.390603E-08  0.246E-04    2.15     128.6  T
     SCC iter.                  ...        0 min,  0.001 sec
     gradient                   ...        0 min,  0.000 sec
 * total energy  :   -10.5231616 Eh     change       -0.1010075E-04 Eh
   gradient norm :     0.0012120 Eh/α   predicted    -0.4187455E-05 ( -58.54%)
   displ. norm   :     0.1894352 α      lambda       -0.1292041E-04
   maximum displ.:     0.1159911 α      in ANC's #4, #5, #7, ...

........................................................................
.............................. CYCLE   65 ..............................
........................................................................
   1    -10.7235652 -0.107236E+02  0.343E-01    2.15       0.0  T
   2    -10.7235664 -0.118888E-05  0.214E-01    2.15       1.0  T
   3    -10.7235285  0.378748E-04  0.500E-02    2.16       1.0  T
   4    -10.7235492 -0.207078E-04  0.341E-02    2.14       1.0  T
   5    -10.7235609 -0.116968E-04  0.231E-02    2.16       1.4  T
   6    -10.7235654 -0.449467E-05  0.132E-02    2.15       2.4  T
   7    -10.7235681 -0.268567E-05  0.223E-03    2.15      14.2  T
   8    -10.7235681  0.636307E-09  0.177E-03    2.15      17.9  T
   9    -10.7235681 -0.283030E-07  0.580E-04    2.15      54.5  T
  10    -10.7235681 -0.266557E-08  0.254E-04    2.15     124.5  T
     SCC iter.                  ...        0 min,  0.001 sec
     gradient                   ...        0 min,  0.001 sec
 * total energy  :   -10.5231714 Eh     change       -0.9793763E-05 Eh
   gradient norm :     0.0017501 Eh/α   predicted    -0.6561902E-05 ( -33.00%)
   displ. norm   :     0.0431861 α      lambda       -0.5672436E-05
   maximum displ.:     0.0296265 α      in ANC's #4, #6, #7, ...

........................................................................
.............................. CYCLE   66 ..............................
........................................................................
   1    -10.7243990 -0.107244E+02  0.645E-02    2.15       0.0  T
   2    -10.7243976  0.140290E-05  0.398E-02    2.15       1.0  T
   3    -10.7243485  0.490306E-04  0.524E-02    2.13       1.0  T
   4    -10.7243946 -0.460428E-04  0.152E-02    2.16       2.1  T
   5    -10.7243990 -0.446623E-05  0.632E-03    2.15       5.0  T
   6    -10.7243997 -0.626199E-06  0.201E-03    2.15      15.7  T
   7    -10.7243997 -0.161895E-07  0.382E-04    2.15      82.7  T
   8    -10.7243997 -0.198546E-08  0.115E-04    2.15     275.5  T
     SCC iter.                  ...        0 min,  0.001 sec
     gradient                   ...        0 min,  0.000 sec
 * total energy  :   -10.5231748 Eh     change       -0.3413258E-05 Eh
   gradient norm :     0.0008024 Eh/α   predicted    -0.2840932E-05 ( -16.77%)
   displ. norm   :     0.0572780 α      lambda       -0.2895046E-05
   maximum displ.:     0.0399752 α      in ANC's #4, #5, #3, ...

   *** GEOMETRY OPTIMIZATION CONVERGED AFTER 66 ITERATIONS ***

------------------------------------------------------------------------
 total energy gain   :        -0.6449646 Eh     -404.7214 kcal/mol
 total RMSD          :         2.3941171 a0        1.2669 Å
 total power (kW/mol):       -25.6568851 (step)-8549.8674 (real)
------------------------------------------------------------------------

 ANCopt (total)                0 d,  0 h,  0 min,  0.198 sec
 optimizer setup                ...        0 min,  0.000 sec (  0.015%)
 model hessian                  ...        0 min,  0.000 sec (  0.244%)
 ANC generation                 ...        0 min,  0.000 sec (  0.093%)
 coordinate transformation      ...        0 min,  0.000 sec (  0.083%)
 single point calculation       ...        0 min,  0.191 sec ( 96.583%)
 optimization log               ...        0 min,  0.002 sec (  1.078%)
 hessian update                 ...        0 min,  0.001 sec (  0.704%)
 rational function              ...        0 min,  0.001 sec (  0.638%)

================
 final structure:
================
10
 xtb: 6.5.1 (conda-forge)
Be           2.06416961794546        0.50147672524491        0.41049406337337
B            1.43881923686244       -0.29180680690877        1.76330617983394
C            2.90542145988035        0.72260208153455        1.81866166169318
C            2.58631067343400        1.00906544028679        3.10102355600376
C            2.32641216318287       -0.45108891077020        2.89764516008495
H            2.91161101307816       -1.20949306189768        3.39094313541402
H            3.93823461835296        1.62649690645427        4.29043127006237
H            4.58627025432898        1.78991985345649        4.76444037023003
H            1.95454904326031        0.49634924734161        5.88551614494693
H            1.71020191967316        0.07446252525931        6.49253845835746

 Bond Distances (Angstroems)
 ---------------------------
Be1-B2=1.6883        Be1-C3=1.6552        B2-Be1=1.6883        B2-C3=1.7841         B2-C5=1.4491         C3-Be1=1.6552        
C3-B2=1.7841         C3-C4=1.3522         C3-C5=1.6962         C4-C3=1.3522         C4-C5=1.4970         C5-B2=1.4491         
C5-C3=1.6962         C5-C4=1.4970         C5-H6=1.0775         H6-C5=1.0775         H7-H8=0.8194         H8-H7=0.8194         
H9-H10=0.7786        H10-H9=0.7786        
 H  H  Rav=0.7990 sigma=0.0204  Rmin=0.7786  Rmax=0.8194     2
 B  Be Rav=1.6883 sigma=0.0000  Rmin=1.6883  Rmax=1.6883     1
 C  H  Rav=1.0775 sigma=0.0000  Rmin=1.0775  Rmax=1.0775     1
 C  Be Rav=1.6552 sigma=0.0000  Rmin=1.6552  Rmax=1.6552     1
 C  B  Rav=1.6166 sigma=0.1675  Rmin=1.4491  Rmax=1.7841     2
 C  C  Rav=1.5151 sigma=0.1410  Rmin=1.3522  Rmax=1.6962     3

 selected bond angles (degree)
 --------------------
C3-Be1-B2= 64.49               C3-B2-Be1= 56.85               C5-B2-Be1=116.87               C5-B2-C3= 62.27                
B2-C3-Be1= 58.66               C4-C3-Be1=135.66               C4-C3-B2= 87.47                C5-C3-Be1=105.98               
C5-C3-B2= 49.13                C5-C3-C4= 57.50                C5-C4-C3= 72.87                C3-C5-B2= 68.60                
C4-C5-B2= 96.05                C4-C5-C3= 49.63                H6-C5-B2=140.21                H6-C5-C3=126.36                
H6-C5-C4=122.01                

 selected dihedral angles (degree)
 ---------------------------------
C5-B2-Be1-C3=342.53           C4-C3-Be1-B2=314.20           C5-C3-Be1-B2= 13.76           Be1-C3-B2-C5=162.40           
C4-C3-B2-Be1=149.90           C4-C3-B2-C5=312.29            C5-C3-B2-Be1=197.60           C5-C4-C3-Be1= 79.34           
C5-C4-C3-B2= 41.55            C3-C5-B2-Be1= 16.49           C4-C5-B2-Be1= 58.66           C4-C5-B2-C3= 42.16            
H6-C5-B2-Be1=254.86           H6-C5-B2-C3=238.37            B2-C5-C3-Be1=344.41           B2-C5-C3-C4=118.81            
C4-C5-C3-Be1=225.60           C4-C5-C3-B2=241.19            H6-C5-C3-Be1=121.83           H6-C5-C3-B2=137.42            
H6-C5-C3-C4=256.23            B2-C5-C4-C3=304.88            H6-C5-C4-C3=112.72            

 CMA Distance (Angstroems)
 ---------------------------
R(CMA):  2.2841
           -------------------------------------------------
          |                Final Singlepoint                |
           -------------------------------------------------

          ...................................................
          :                      SETUP                      :
          :.................................................:
          :  # basis functions                  25          :
          :  # atomic orbitals                  25          :
          :  # shells                           15          :
          :  # electrons                        22          :
          :  max. iterations                   250          :
          :  Hamiltonian                  GFN2-xTB          :
          :  restarted?                      false          :
          :  GBSA solvation                  false          :
          :  PC potential                    false          :
          :  electronic temp.          300.0000000     K    :
          :  accuracy                    1.0000000          :
          :  -> integral cutoff          0.2500000E+02      :
          :  -> integral neglect         0.1000000E-07      :
          :  -> SCF convergence          0.1000000E-05 Eh   :
          :  -> wf. convergence          0.1000000E-03 e    :
          :  Broyden damping             0.4000000          :
          ...................................................

 iter      E             dE          RMSdq      gap      omega  full diag
   1    -10.7243997 -0.107244E+02  0.756E-05    2.15       0.0  T
   2    -10.7243997  0.186576E-09  0.108E-04    2.15     291.9  T
   3    -10.7243997 -0.185477E-09  0.600E-05    2.15     527.0  T

   *** convergence criteria satisfied after 3 iterations ***

         #    Occupation            Energy/Eh            Energy/eV
      -------------------------------------------------------------
         1        2.0000           -0.5920220             -16.1097
       ...           ...                  ...                  ...
         5        2.0000           -0.4351410             -11.8408
         6        2.0000           -0.4249048             -11.5622
         7        2.0000           -0.4012200             -10.9178
         8        2.0000           -0.3817308             -10.3874
         9        2.0000           -0.3581650              -9.7462
        10        2.0000           -0.3301295              -8.9833
        11        2.0000           -0.3094597              -8.4208 (HOMO)
        12                         -0.2304629              -6.2712 (LUMO)
        13                         -0.2122630              -5.7760
        14                         -0.1751215              -4.7653
        15                         -0.1427294              -3.8839
        16                         -0.1004965              -2.7346
       ...                                ...                  ...
        25                          0.9848697              26.7997
      -------------------------------------------------------------
                  HL-Gap            0.0789969 Eh            2.1496 eV
             Fermi-level           -0.2699613 Eh           -7.3460 eV

 SCC (total)                   0 d,  0 h,  0 min,  0.002 sec
 SCC setup                      ...        0 min,  0.000 sec (  1.201%)
 Dispersion                     ...        0 min,  0.000 sec (  2.768%)
 classical contributions        ...        0 min,  0.000 sec (  1.794%)
 integral evaluation            ...        0 min,  0.000 sec (  8.898%)
 iterations                     ...        0 min,  0.000 sec ( 23.150%)
 molecular gradient             ...        0 min,  0.001 sec ( 58.828%)
 printout                       ...        0 min,  0.000 sec (  2.189%)

         :::::::::::::::::::::::::::::::::::::::::::::::::::::
         ::                     SUMMARY                     ::
         :::::::::::::::::::::::::::::::::::::::::::::::::::::
         :: total energy             -10.523174821143 Eh    ::
         :: gradient norm              0.000802691596 Eh/a0 ::
         :: HOMO-LUMO gap              2.149613892411 eV    ::
         ::.................................................::
         :: SCC energy               -10.724399687270 Eh    ::
         :: -> isotropic ES           -0.025396624018 Eh    ::
         :: -> anisotropic ES          0.015184550693 Eh    ::
         :: -> anisotropic XC          0.002986639178 Eh    ::
         :: -> dispersion             -0.004164915720 Eh    ::
         :: repulsion energy           0.201221051335 Eh    ::
         :: add. restraining           0.000000000000 Eh    ::
         :: total charge               0.000000000000 e     ::
         :::::::::::::::::::::::::::::::::::::::::::::::::::::

           -------------------------------------------------
          |                Property Printout                |
           -------------------------------------------------

    * Orbital Energies and Occupations

         #    Occupation            Energy/Eh            Energy/eV
      -------------------------------------------------------------
         1        2.0000           -0.5920220             -16.1097
         2        2.0000           -0.5140911             -13.9891
         3        2.0000           -0.4785351             -13.0216
         4        2.0000           -0.4502631             -12.2523
         5        2.0000           -0.4351410             -11.8408
         6        2.0000           -0.4249048             -11.5622
         7        2.0000           -0.4012200             -10.9178
         8        2.0000           -0.3817308             -10.3874
         9        2.0000           -0.3581650              -9.7462
        10        2.0000           -0.3301295              -8.9833
        11        2.0000           -0.3094597              -8.4208 (HOMO)
        12                         -0.2304629              -6.2712 (LUMO)
        13                         -0.2122630              -5.7760
        14                         -0.1751215              -4.7653
        15                         -0.1427294              -3.8839
        16                         -0.1004965              -2.7346
        17                         -0.0204540              -0.5566
        18                          0.1297970               3.5320
        19                          0.1535393               4.1780
        20                          0.1562344               4.2514
        21                          0.1909826               5.1969
        22                          0.2582247               7.0267
       ...                                ...                  ...
        25                          0.9848697              26.7997
      -------------------------------------------------------------
                  HL-Gap            0.0789969 Eh            2.1496 eV
             Fermi-level           -0.2699613 Eh           -7.3460 eV

     #   Z          covCN         q      C6AA      α(0)
     1   4 Be       1.777     0.450    14.394     8.804
     2   5 B        2.810     0.058    20.460     7.558
     3   6 C        3.565    -0.222    25.952     7.420
     4   6 C        2.140    -0.191    36.241     9.731
     5   6 C        3.758    -0.066    21.826     6.661
     6   1 H        0.926    -0.002     3.084     2.746
     7   1 H        0.651     0.027     2.942     2.756
     8   1 H        0.651    -0.052     4.632     3.459
     9   1 H        0.808     0.020     2.778     2.617
    10   1 H        0.808    -0.022     3.533     2.952

 Mol. C6AA /au·bohr⁶  :       1075.423160
 Mol. C8AA /au·bohr⁸  :      28095.350424
 Mol. α(0) /au        :         54.703984


Wiberg/Mayer (AO) data.
largest (>0.10) Wiberg bond orders for each atom

 ---------------------------------------------------------------------------
     #   Z sym  total        # sym  WBO       # sym  WBO       # sym  WBO
 ---------------------------------------------------------------------------
     1   4 Be   2.095 --     2 B    1.022     3 C    0.864     4 C    0.131
     2   5 B    3.302 --     5 C    1.357     1 Be   1.022     3 C    0.590
                             4 C    0.304
     3   6 C    3.665 --     4 C    1.588     1 Be   0.864     5 C    0.593
                             2 B    0.590
     4   6 C    3.076 --     3 C    1.588     5 C    0.921     2 B    0.304
                             1 Be   0.131
     5   6 C    3.896 --     2 B    1.357     6 H    0.964     4 C    0.921
                             3 C    0.593
     6   1 H    1.000 --     5 C    0.964
     7   1 H    0.999 --     8 H    0.912
     8   1 H    0.997 --     7 H    0.912
     9   1 H    1.000 --    10 H    0.997
    10   1 H    0.999 --     9 H    0.997
 ---------------------------------------------------------------------------

Topologies differ in total number of bonds
Writing topology from bond orders to xtbtopo.mol

molecular dipole:
                 x           y           z       tot (Debye)
 q only:       -0.787      -0.290      -2.011
   full:       -0.143      -0.097      -2.742       6.984
molecular quadrupole (traceless):
                xx          xy          yy          xz          yz          zz
 q only:       -0.333      -3.664       9.575     -17.846      -5.031      -9.242
  q+dip:        4.922      -3.630       6.461     -19.073      -9.769     -11.383
   full:        4.207      -5.382       8.059     -19.622      -9.078     -12.265

           -------------------------------------------------
          |                Geometry Summary                 |
           -------------------------------------------------

      molecular mass/u    :       60.8951226
   center of mass at/Å    :        2.3529019       0.3209642       2.3265491
  moments of inertia/u·Å² :        0.4464783E+02   0.1034605E+03   0.1320192E+03
rotational constants/cm⁻¹ :        0.3775689E+00   0.1629379E+00   0.1276908E+00

 * 6 selected distances

     #   Z          #   Z                                           value/Å
Note: The following floating-point exceptions are signalling: IEEE_UNDERFLOW_FLAG
normal termination of xtb
     1   4 Be       2   5 B                                       1.6883314 (max)
     1   4 Be       3   6 C                                       1.6551549
     3   6 C        4   6 C                                       1.3521632
     2   5 B        5   6 C                                       1.4491091
     5   6 C        6   1 H                                       1.0774867
     9   1 H       10   1 H                                       0.7785693 (min)

 * 6 distinct bonds (by element types)

   Z      Z             #   av. dist./Å        max./Å        min./Å
   1 H    1 H           1     0.7785693     0.7785693     0.7785693
   4 Be   5 B           1     1.6883314     1.6883314     1.6883314
   1 H    6 C           1     1.0774867     1.0774867     1.0774867
   4 Be   6 C           1     1.6551549     1.6551549     1.6551549
   5 B    6 C           1     1.4491091     1.4491091     1.4491091
   6 C    6 C           1     1.3521632     1.3521632     1.3521632


optimized geometry written to: xtbopt.xyz


           -------------------------------------------------
          | TOTAL ENERGY              -10.523174821143 Eh   |
          | GRADIENT NORM               0.000802691596 Eh/α |
          | HOMO-LUMO GAP               2.149613892411 eV   |
           -------------------------------------------------
########################################################################
[WARNING] Runtime exception occurred
-3- restart_readRestart: Dimension missmatch in restart file.
-2- restart_readRestart: Multiplicity missmatch in restart file.
-1- restart_readRestart: Number of electron missmatch in restart file.
########################################################################

------------------------------------------------------------------------
 * finished run on 2025/06/07 at 03:27:49.038     
------------------------------------------------------------------------
 total:
 * wall-time:     0 d,  0 h,  0 min,  0.289 sec
 *  cpu-time:     0 d,  0 h,  0 min,  4.050 sec
 * ratio c/w:    14.006 speedup
 SCF:
 * wall-time:     0 d,  0 h,  0 min,  0.084 sec
 *  cpu-time:     0 d,  0 h,  0 min,  1.096 sec
 * ratio c/w:    13.019 speedup
 ANC optimizer:
 * wall-time:     0 d,  0 h,  0 min,  0.200 sec
 *  cpu-time:     0 d,  0 h,  0 min,  2.903 sec
 * ratio c/w:    14.500 speedup

