      -----------------------------------------------------------      
     |                   =====================                   |     
     |                           x T B                           |     
     |                   =====================                   |     
     |                         S. Grimme                         |     
     |          Mulliken Center for Theoretical Chemistry        |     
     |                    University of Bonn                     |     
      -----------------------------------------------------------      

   * xtb version 6.5.1 (conda-forge) compiled by 'runner@Mac-1657629245115.local' on 2022-07-12

   xtb is free software: you can redistribute it and/or modify it under
   the terms of the GNU Lesser General Public License as published by
   the Free Software Foundation, either version 3 of the License, or
   (at your option) any later version.
   
   xtb is distributed in the hope that it will be useful,
   but WITHOUT ANY WARRANTY; without even the implied warranty of
   MERCHANTABILITY or FITNESS FOR A PARTICULAR PURPOSE.  See the
   GNU Lesser General Public License for more details.
   
   Cite this work as:
   * C. Bannwarth, E. Caldeweyher, S. Ehlert, A. Hansen, P. Pracht,
     J. Seibert, S. Spicher, S. Grimme, WIREs Comput. Mol. Sci., 2020, 11,
     e01493. DOI: 10.1002/wcms.1493
   
   for GFN2-xTB:
   * C. Bannwarth, S. Ehlert and S. Grimme., J. Chem. Theory Comput., 2019,
     15, 1652-1671. DOI: 10.1021/acs.jctc.8b01176
   for GFN1-xTB:
   * S. Grimme, C. Bannwarth, P. Shushkov, J. Chem. Theory Comput., 2017,
     13, 1989-2009. DOI: 10.1021/acs.jctc.7b00118
   for GFN0-xTB:
   * P. Pracht, E. Caldeweyher, S. Ehlert, S. Grimme, ChemRxiv, 2019, preprint.
     DOI: 10.26434/chemrxiv.8326202.v1
   for GFN-FF:
   * S. Spicher and S. Grimme, Angew. Chem. Int. Ed., 2020, 59, 15665-15673.
     DOI: 10.1002/anie.202004239
   
   for ALPB and GBSA implicit solvation:
   * S. Ehlert, M. Stahn, S. Spicher, S. Grimme, J. Chem. Theory Comput.,
     2021, 17, 4250-4261. DOI: 10.1021/acs.jctc.1c00471
   
   for DFT-D4:
   * E. Caldeweyher, C. Bannwarth and S. Grimme, J. Chem. Phys., 2017,
     147, 034112. DOI: 10.1063/1.4993215
   * E. Caldeweyher, S. Ehlert, A. Hansen, H. Neugebauer, S. Spicher,
     C. Bannwarth and S. Grimme, J. Chem. Phys., 2019, 150, 154122.
     DOI: 10.1063/1.5090222
   * E. Caldeweyher, J.-M. Mewes, S. Ehlert and S. Grimme, Phys. Chem. Chem. Phys.
     2020, 22, 8499-8512. DOI: 10.1039/D0CP00502A
   
   for sTDA-xTB:
   * S. Grimme and C. Bannwarth, J. Chem. Phys., 2016, 145, 054103.
     DOI: 10.1063/1.4959605
   
   in the mass-spec context:
   * V. Asgeirsson, C. Bauer and S. Grimme, Chem. Sci., 2017, 8, 4879.
     DOI: 10.1039/c7sc00601b
   * J. Koopman and S. Grimme, ACS Omega 2019, 4, 12, 15120-15133.
     DOI: 10.1021/acsomega.9b02011
   
   for metadynamics refer to:
   * S. Grimme, J. Chem. Theory Comput., 2019, 155, 2847-2862
     DOI: 10.1021/acs.jctc.9b00143
   
   for SPH calculations refer to:
   * S. Spicher and S. Grimme, J. Chem. Theory Comput., 2021, 17, 1701-1714
     DOI: 10.1021/acs.jctc.0c01306
   
   with help from (in alphabetical order)
   P. Atkinson, C. Bannwarth, F. Bohle, G. Brandenburg, E. Caldeweyher
   M. Checinski, S. Dohm, S. Ehlert, S. Ehrlich, I. Gerasimov, C. Hölzer
   A. Katbashev, J. Koopman, C. Lavigne, S. Lehtola, F. März, M. Müller,
   F. Musil, H. Neugebauer, J. Pisarek, C. Plett, P. Pracht, F. Pultar,
   J. Seibert, P. Shushkov, S. Spicher, M. Stahn, M. Steiner, T. Strunk,
   J. Stückrath, T. Rose, and J. Unsleber
   
 * started run on 2025/06/07 at 03:27:50.191     

           -------------------------------------------------
          |                Calculation Setup                |
           -------------------------------------------------

          program call               : xtb BBeC4H5.xyz --gfn 2 --opt
          coordinate file            : BBeC4H5.xyz
          omp threads                :                    16

   ID    Z sym.   atoms
    1    4 Be     1
    2    5 B      2
    3    6 C      3-6
    4    1 H      7-11

molecular fragmentation (1/2 indicates fragments):
12222222222
# atoms in fragment 1/2:     1    10
 fragment masses (1/2) :        9.01       63.89
CMA distance (Bohr)    :   8.053
constraining FC (au)   :  0.0500

           -------------------------------------------------
          |                 G F N 2 - x T B                 |
           -------------------------------------------------

        Reference                      10.1021/acs.jctc.8b01176
      * Hamiltonian:
        H0-scaling (s, p, d)           1.850000    2.230000    2.230000
        zeta-weighting                 0.500000
      * Dispersion:
        s8                             2.700000
        a1                             0.520000
        a2                             5.000000
        s9                             5.000000
      * Repulsion:
        kExp                           1.500000    1.000000
        rExp                           1.000000
      * Coulomb:
        alpha                          2.000000
        third order                    shell-resolved
        anisotropic                    true
        a3                             3.000000
        a5                             4.000000
        cn-shift                       1.200000
        cn-exp                         4.000000
        max-rad                        5.000000


          ...................................................
          :                      SETUP                      :
          :.................................................:
          :  # basis functions                  29          :
          :  # atomic orbitals                  29          :
          :  # shells                           17          :
          :  # electrons                        26          :
          :  max. iterations                   250          :
          :  Hamiltonian                  GFN2-xTB          :
          :  restarted?                      false          :
          :  GBSA solvation                  false          :
          :  PC potential                    false          :
          :  electronic temp.          300.0000000     K    :
          :  accuracy                    1.0000000          :
          :  -> integral cutoff          0.2500000E+02      :
          :  -> integral neglect         0.1000000E-07      :
          :  -> SCF convergence          0.1000000E-05 Eh   :
          :  -> wf. convergence          0.1000000E-03 e    :
          :  Broyden damping             0.4000000          :
          ...................................................

 iter      E             dE          RMSdq      gap      omega  full diag
   1     10.8323321  0.108323E+02  0.228E+01    0.12       0.0  T
   2     -7.6594267 -0.184918E+02  0.178E+01    0.40       1.0  T
   3     -5.1130602  0.254637E+01  0.191E+01    0.14       1.0  T
   4     -8.9877826 -0.387472E+01  0.100E+01    0.27       1.0  T
   5     -6.1141613  0.287362E+01  0.157E+01    0.71       1.0  T
   6     -9.4448162 -0.333065E+01  0.922E+00    0.33       1.0  T
   7    -10.1632011 -0.718385E+00  0.949E+00    0.44       1.0  T
   8    -10.3705781 -0.207377E+00  0.898E+00    0.40       1.0  T
   9    -10.1736886  0.196890E+00  0.895E+00    0.36       1.0  T
  10    -10.1821085 -0.841988E-02  0.890E+00    0.37       1.0  T
  11    -10.0646813  0.117427E+00  0.907E+00    0.40       1.0  T
  12    -10.7961187 -0.731437E+00  0.104E+01    0.31       1.0  T
  13    -10.0489219  0.747197E+00  0.138E+01    0.47       1.0  T
  14    -10.5837042 -0.534782E+00  0.105E+01    0.60       1.0  T
  15     11.6581592  0.222419E+02  0.277E+01    0.11       1.0  T
  16      5.9118977 -0.574626E+01  0.183E+01    0.15       1.0  T
  17     -9.3083935 -0.152203E+02  0.149E+01    0.26       1.0  T
  18    -10.3804121 -0.107202E+01  0.141E+01    0.20       1.0  T
  19    -10.8832023 -0.502790E+00  0.735E+00    0.27       1.0  T
  20    -10.9292054 -0.460031E-01  0.447E+00    0.15       1.0  T
  21    -11.4701314 -0.540926E+00  0.657E+00    0.18       1.0  T
  22     -8.2822397  0.318789E+01  0.148E+01    0.25       1.0  T
  23     -6.7843073  0.149793E+01  0.155E+01    0.18       1.0  T
  24    -11.5733896 -0.478908E+01  0.652E+00    0.20       1.0  T
  25    -11.1915342  0.381855E+00  0.111E+01    0.20       1.0  T
  26    -10.7488399  0.442694E+00  0.125E+01    0.23       1.0  T
  27    -11.6365062 -0.887666E+00  0.816E+00    0.14       1.0  T
  28    -11.5432277  0.932785E-01  0.438E+00    0.14       1.0  T
  29    -11.6376673 -0.944396E-01  0.456E+00    0.16       1.0  T
  30    -11.4738362  0.163831E+00  0.900E+00    0.18       1.0  T
  31    -10.7321841  0.741652E+00  0.120E+01    0.24       1.0  T
  32     -7.8181474  0.291404E+01  0.143E+01    0.13       1.0  T
  33     -8.6107810 -0.792634E+00  0.145E+01    0.18       1.0  T
  34     -9.4575815 -0.846801E+00  0.140E+01    0.26       1.0  T
  35    -10.4048914 -0.947310E+00  0.123E+01    0.25       1.0  T
  36    -10.7818327 -0.376941E+00  0.112E+01    0.21       1.0  T
  37    -10.7263539  0.554788E-01  0.113E+01    0.21       1.0  T
  38    -10.5302172  0.196137E+00  0.117E+01    0.22       1.0  T
  39    -10.5086023  0.216150E-01  0.118E+01    0.23       1.0  T
  40    -10.4649529  0.436494E-01  0.119E+01    0.23       1.0  T
  41    -10.8184979 -0.353545E+00  0.108E+01    0.23       1.0  T
  42    -11.6939650 -0.875467E+00  0.365E+00    0.17       1.0  T
  43    -11.6443542  0.496108E-01  0.568E+00    0.22       1.0  T
  44    -11.6194174  0.249368E-01  0.575E+00    0.22       1.0  T
  45    -11.5729957  0.464217E-01  0.567E+00    0.22       1.0  T
  46    -11.7941561 -0.221160E+00  0.500E+00    0.18       1.0  T
  47    -11.1761598  0.617996E+00  0.877E+00    0.21       1.0  T
  48    -11.4701086 -0.293949E+00  0.733E+00    0.19       1.0  T
  49    -11.3046447  0.165464E+00  0.819E+00    0.21       1.0  T
  50    -11.3431297 -0.384850E-01  0.792E+00    0.21       1.0  T
  51    -11.5211058 -0.177976E+00  0.666E+00    0.21       1.0  T
  52    -11.2677647  0.253341E+00  0.790E+00    0.20       1.0  T
  53    -11.3102556 -0.424909E-01  0.765E+00    0.21       1.0  T
  54    -11.4894833 -0.179228E+00  0.635E+00    0.20       1.0  T
  55    -11.3958972  0.935861E-01  0.675E+00    0.20       1.0  T
  56    -11.4216467 -0.257495E-01  0.668E+00    0.20       1.0  T
  57    -11.4485890 -0.269423E-01  0.659E+00    0.20       1.0  T
  58    -11.4587415 -0.101525E-01  0.671E+00    0.20       1.0  T
  59    -11.4928812 -0.341396E-01  0.629E+00    0.20       1.0  T
  60    -11.4938248 -0.943662E-03  0.632E+00    0.20       1.0  T
  61    -11.5267131 -0.328882E-01  0.539E+00    0.20       1.0  T
  62    -11.4849543  0.417588E-01  0.528E+00    0.20       1.0  T
  63    -11.4613210  0.236333E-01  0.492E+00    0.19       1.0  T
  64    -11.5729789 -0.111658E+00  0.380E+00    0.20       1.0  T
  65    -11.4740714  0.989075E-01  0.410E+00    0.19       1.0  T
  66    -11.4762095 -0.213805E-02  0.401E+00    0.19       1.0  T
  67    -11.7945161 -0.318307E+00  0.674E+00    0.17       1.0  T
  68    -11.7554762  0.390399E-01  0.687E+00    0.17       1.0  T
  69    -11.7518432  0.363293E-02  0.685E+00    0.17       1.0  T
  70    -11.8082009 -0.563577E-01  0.682E+00    0.16       1.0  T
  71    -11.8167211 -0.852020E-02  0.677E+00    0.15       1.0  T
  72    -11.8507615 -0.340404E-01  0.561E+00    0.15       1.0  T
  73    -11.8717035 -0.209420E-01  0.358E+00    0.16       1.0  T
  74    -11.8550813  0.166222E-01  0.445E+00    0.15       1.0  T
  75    -11.8455147  0.956661E-02  0.321E+00    0.17       1.0  T
  76    -11.8303357  0.151790E-01  0.336E+00    0.17       1.0  T
  77    -11.5619696  0.268366E+00  0.821E+00    0.15       1.0  T
  78    -11.5178735  0.440961E-01  0.861E+00    0.17       1.0  T
  79    -11.4117261  0.106147E+00  0.868E+00    0.16       1.0  T
  80    -11.4910501 -0.793240E-01  0.821E+00    0.16       1.0  T
  81    -11.5017131 -0.106630E-01  0.687E+00    0.15       1.0  T
  82    -11.4939621  0.775105E-02  0.655E+00    0.14       1.0  T
  83    -11.4976482 -0.368614E-02  0.634E+00    0.14       1.0  T
  84    -11.4874208  0.102274E-01  0.533E+00    0.13       1.0  T
  85    -11.4777885  0.963233E-02  0.501E+00    0.13       1.0  T
  86    -11.4727493  0.503926E-02  0.501E+00    0.13       1.0  T
  87    -11.5013286 -0.285793E-01  0.502E+00    0.14       1.0  T
  88    -11.5260301 -0.247016E-01  0.497E+00    0.15       1.0  T
  89    -11.5694024 -0.433723E-01  0.469E+00    0.15       1.0  T
  90    -11.5788161 -0.941376E-02  0.454E+00    0.15       1.0  T
  91    -11.6105075 -0.316914E-01  0.413E+00    0.16       1.0  T
  92    -11.6291234 -0.186159E-01  0.386E+00    0.16       1.0  T
  93    -11.6560401 -0.269167E-01  0.352E+00    0.16       1.0  T
  94    -11.6848261 -0.287860E-01  0.316E+00    0.17       1.0  T
  95    -11.7123694 -0.275433E-01  0.281E+00    0.17       1.0  T
  96    -11.7361267 -0.237573E-01  0.252E+00    0.17       1.0  T
  97    -11.7542318 -0.181052E-01  0.232E+00    0.17       1.0  T
  98    -11.7687649 -0.145331E-01  0.218E+00    0.18       1.0  T
  99    -11.7827818 -0.140170E-01  0.208E+00    0.18       1.0  T
 100    -11.7936593 -0.108774E-01  0.204E+00    0.18       1.0  T
 101    -11.7992459 -0.558660E-02  0.205E+00    0.18       1.0  T
 102    -11.8019363 -0.269040E-02  0.209E+00    0.18       1.0  T
 103    -11.8051673 -0.323104E-02  0.213E+00    0.18       1.0  T
 104    -11.8145678 -0.940051E-02  0.210E+00    0.18       1.0  T
 105    -11.8238429 -0.927511E-02  0.205E+00    0.18       1.0  T
 106    -11.8240675 -0.224549E-03  0.206E+00    0.18       1.0  T
 107    -11.8216587  0.240881E-02  0.209E+00    0.18       1.0  T
 108    -11.8218511 -0.192400E-03  0.210E+00    0.18       1.0  T
 109    -11.8346283 -0.127773E-01  0.200E+00    0.18       1.0  T
 110    -11.8382388 -0.361047E-02  0.198E+00    0.18       1.0  T
 111    -11.8379669  0.271924E-03  0.198E+00    0.18       1.0  T
 112    -11.8397940 -0.182716E-02  0.196E+00    0.18       1.0  T
 113    -11.8496340 -0.983991E-02  0.181E+00    0.18       1.0  T
 114    -11.8583798 -0.874589E-02  0.163E+00    0.18       1.0  T
 115    -11.8638302 -0.545040E-02  0.148E+00    0.18       1.0  T
 116    -11.8693460 -0.551571E-02  0.131E+00    0.18       1.0  T
 117    -11.8745328 -0.518683E-02  0.113E+00    0.19       1.0  T
 118    -11.8793799 -0.484714E-02  0.946E-01    0.19       1.0  T
 119    -11.8828713 -0.349140E-02  0.794E-01    0.19       1.0  T
 120    -11.8853692 -0.249785E-02  0.661E-01    0.19       1.0  T
 121    -11.8870054 -0.163619E-02  0.547E-01    0.19       1.0  T
 122    -11.8880214 -0.101603E-02  0.445E-01    0.19       1.0  T
 123    -11.8884453 -0.423915E-03  0.383E-01    0.19       1.0  T
 124    -11.8886441 -0.198797E-03  0.354E-01    0.19       1.0  T
 125    -11.8893205 -0.676362E-03  0.294E-01    0.19       1.0  T
 126    -11.8903119 -0.991397E-03  0.186E-01    0.19       1.0  T
 127    -11.8906887 -0.376784E-03  0.122E-01    0.19       1.0  T
 128    -11.8907850 -0.963472E-04  0.982E-02    0.19       1.0  T
 129    -11.8908068 -0.217655E-04  0.845E-02    0.19       1.0  T
 130    -11.8908116 -0.478873E-05  0.604E-02    0.19       1.0  T
 131    -11.8907932  0.183353E-04  0.477E-02    0.19       1.0  T
 132    -11.8907689  0.243611E-04  0.507E-02    0.19       1.0  T
 133    -11.8907671  0.177457E-05  0.496E-02    0.19       1.0  T
 134    -11.8907986 -0.314882E-04  0.380E-02    0.19       1.0  T
 135    -11.8908085 -0.990896E-05  0.326E-02    0.19       1.0  T
 136    -11.8908160 -0.754843E-05  0.297E-02    0.19       1.0  T
 137    -11.8908178 -0.174682E-05  0.262E-02    0.19       1.2  T
 138    -11.8908184 -0.616804E-06  0.217E-02    0.19       1.4  T
 139    -11.8908195 -0.110751E-05  0.183E-02    0.19       1.6  T
 140    -11.8908182  0.130458E-05  0.143E-02    0.19       2.1  T
 141    -11.8908187 -0.475767E-06  0.128E-02    0.19       2.3  T
 142    -11.8908188 -0.112688E-06  0.112E-02    0.19       2.7  T
 143    -11.8908190 -0.201876E-06  0.888E-03    0.19       3.4  T
 144    -11.8908200 -0.999271E-06  0.725E-03    0.19       4.2  T
 145    -11.8908201 -0.812443E-07  0.555E-03    0.19       5.4  T
 146    -11.8908203 -0.187774E-06  0.503E-03    0.19       6.0  T
 147    -11.8908203 -0.159450E-07  0.464E-03    0.19       6.5  T
 148    -11.8908203 -0.493951E-08  0.445E-03    0.19       6.8  T
 149    -11.8908203 -0.261061E-08  0.272E-03    0.19      11.1  T
 150    -11.8908202  0.340578E-07  0.137E-03    0.19      22.0  T
 151    -11.8908203 -0.322209E-07  0.907E-04    0.19      33.2  T
 152    -11.8908203  0.760007E-08  0.803E-04    0.19      37.6  T

   *** convergence criteria satisfied after 152 iterations ***

         #    Occupation            Energy/Eh            Energy/eV
      -------------------------------------------------------------
         1        2.0000           -0.6040602             -16.4373
       ...           ...                  ...                  ...
         7        2.0000           -0.4206506             -11.4465
         8        2.0000           -0.3771811             -10.2636
         9        2.0000           -0.3558734              -9.6838
        10        2.0000           -0.3511857              -9.5562
        11        2.0000           -0.3441460              -9.3647
        12        1.9998           -0.3158704              -8.5953
        13        1.9483           -0.3103454              -8.4449 (HOMO)
        14        0.0514           -0.3034421              -8.2571 (LUMO)
        15        0.0005           -0.2989498              -8.1348
        16                         -0.2860140              -7.7828
        17                         -0.2807396              -7.6393
        18                         -0.2648650              -7.2073
       ...                                ...                  ...
        29                          0.6231585              16.9570
      -------------------------------------------------------------
                  HL-Gap            0.0069033 Eh            0.1878 eV
             Fermi-level           -0.3068967 Eh           -8.3511 eV

 SCC (total)                   0 d,  0 h,  0 min,  0.060 sec
 SCC setup                      ...        0 min,  0.000 sec (  0.149%)
 Dispersion                     ...        0 min,  0.000 sec (  0.161%)
 classical contributions        ...        0 min,  0.000 sec (  0.141%)
 integral evaluation            ...        0 min,  0.000 sec (  0.280%)
 iterations                     ...        0 min,  0.059 sec ( 98.204%)
 molecular gradient             ...        0 min,  0.001 sec (  0.979%)
 printout                       ...        0 min,  0.000 sec (  0.065%)

         :::::::::::::::::::::::::::::::::::::::::::::::::::::
         ::                     SUMMARY                     ::
         :::::::::::::::::::::::::::::::::::::::::::::::::::::
         :: total energy             -11.819721028564 Eh    ::
         :: gradient norm              0.311376239663 Eh/a0 ::
         :: HOMO-LUMO gap              0.187847895444 eV    ::
         ::.................................................::
         :: SCC energy               -11.890820271309 Eh    ::
         :: -> isotropic ES           -0.078827010562 Eh    ::
         :: -> anisotropic ES          0.010642309126 Eh    ::
         :: -> anisotropic XC         -0.012027338032 Eh    ::
         :: -> dispersion             -0.009116498106 Eh    ::
         :: repulsion energy           0.071093492037 Eh    ::
         :: add. restraining           0.000000000000 Eh    ::
         :: total charge              -0.000000001040 e     ::
         :::::::::::::::::::::::::::::::::::::::::::::::::::::

      ----------------------------------------------------------- 
     |                   =====================                   |
     |                        A N C O P T                        |
     |                   =====================                   |
     |               Approximate Normal Coordinate               |
     |                Rational Function Optimizer                |
      ----------------------------------------------------------- 

          ...................................................
          :                      SETUP                      :
          :.................................................:
          :   optimization level            normal          :
          :   max. optcycles                   200          :
          :   ANC micro-cycles                  20          :
          :   degrees of freedom                27          :
          :.................................................:
          :   RF solver                   davidson          :
          :   write xtbopt.log                true          :
          :   linear?                        false          :
          :   energy convergence         0.5000000E-05 Eh   :
          :   grad. convergence          0.1000000E-02 Eh/α :
          :   maximium RF displ.         1.0000000          :
          :   Hlow (freq-cutoff)         0.1000000E-01      :
          :   Hmax (freq-cutoff)         5.0000000          :
          :   S6 in model hess.         20.0000000          :
          ...................................................

generating ANC from model Hessian ...
Using Lindh-Hessian (1995)
 Shifting diagonal of input Hessian by    2.1887392942273751E-002
 Lowest  eigenvalues of input Hessian
    0.010000    0.020101    0.021818    0.000000    0.000000    0.000000
    0.000000    0.000000    0.000000    0.022089    0.022267    0.022331
    0.022825    0.023084    0.023389    0.023712    0.024494    0.025235
 Highest eigenvalues
    0.237574    0.252529    0.277394    0.302593    0.356231    0.386535


........................................................................
.............................. CYCLE    1 ..............................
........................................................................
   1    -11.8908203 -0.118908E+02  0.712E-04    0.19       0.0  T
   2    -11.8908200  0.297445E-06  0.487E-03    0.19       6.2  T
   3    -11.8908184  0.159353E-05  0.116E-02    0.19       2.6  T
   4    -11.8908193 -0.933794E-06  0.836E-03    0.19       3.6  T
   5    -11.8908201 -0.789639E-06  0.349E-03    0.19       8.6  T
   6    -11.8908202 -0.100908E-06  0.217E-03    0.19      13.9  T
   7    -11.8908202 -0.244205E-07  0.182E-03    0.19      16.5  T
   8    -11.8908203 -0.192160E-07  0.133E-03    0.19      22.6  T
   9    -11.8908203 -0.214726E-07  0.459E-04    0.19      65.7  T
  10    -11.8908203 -0.210951E-08  0.166E-04    0.19     181.2  T
     SCC iter.                  ...        0 min,  0.001 sec
     gradient                   ...        0 min,  0.000 sec
 * total energy  :   -11.8197210 Eh     change       -0.1787952E-07 Eh
   gradient norm :     0.3112817 Eh/α   predicted     0.0000000E+00 (-100.00%)
   displ. norm   :     0.7879250 α      lambda       -0.2380258E+00
   maximum displ.:     0.4583312 α      in ANC's #20, #19, #21, ...

........................................................................
.............................. CYCLE    2 ..............................
........................................................................
   1    -12.0682291 -0.120682E+02  0.229E+00    0.29       0.0  T
   2    -11.6216313  0.446598E+00  0.512E+00    0.18       1.0  T
   3    -11.3074151  0.314216E+00  0.724E+00    0.41       1.0  T
   4    -12.0347927 -0.727378E+00  0.185E+00    0.26       1.0  T
   5    -11.9246833  0.110109E+00  0.328E+00    0.28       1.0  T
   6    -12.0598495 -0.135166E+00  0.145E+00    0.31       1.0  T
   7    -11.9979173  0.619322E-01  0.208E+00    0.10       1.0  T
   8    -12.0743572 -0.764399E-01  0.134E+00    0.22       1.0  T
   9    -12.0498652  0.244919E-01  0.194E+00    0.22       1.0  T
  10    -12.0424701  0.739511E-02  0.205E+00    0.22       1.0  T
  11    -12.0665404 -0.240703E-01  0.151E+00    0.22       1.0  T
  12    -12.0902971 -0.237567E-01  0.666E-01    0.23       1.0  T
  13    -12.0873693  0.292781E-02  0.114E+00    0.25       1.0  T
  14    -12.0876404 -0.271093E-03  0.109E+00    0.25       1.0  T
  15    -12.0935425 -0.590204E-02  0.386E-01    0.24       1.0  T
  16    -12.0925090  0.103345E-02  0.427E-01    0.23       1.0  T
  17    -12.0934177 -0.908719E-03  0.326E-01    0.23       1.0  T
  18    -12.0935930 -0.175295E-03  0.304E-01    0.23       1.0  T
  19    -12.0935885  0.450797E-05  0.263E-01    0.23       1.0  T
  20    -12.0936456 -0.570987E-04  0.164E-01    0.23       1.0  T
  21    -12.0937975 -0.151864E-03  0.526E-02    0.23       1.0  T
  22    -12.0938169 -0.193746E-04  0.872E-03    0.23       3.5  T
  23    -12.0938177 -0.807989E-06  0.788E-03    0.23       3.8  T
  24    -12.0938177 -0.149906E-07  0.600E-03    0.23       5.0  T
  25    -12.0938178 -0.878029E-07  0.354E-03    0.23       8.5  T
  26    -12.0938178 -0.275264E-07  0.180E-03    0.23      16.8  T
  27    -12.0938178 -0.126907E-07  0.275E-04    0.23     109.8  T
  28    -12.0938178 -0.115094E-09  0.227E-04    0.23     133.1  T
     SCC iter.                  ...        0 min,  0.005 sec
     gradient                   ...        0 min,  0.000 sec
 * total energy  :   -12.0377228 Eh     change       -0.2180017E+00 Eh
   gradient norm :     0.2937920 Eh/α   predicted    -0.1928992E+00 ( -11.51%)
   displ. norm   :     0.9694917 α      lambda       -0.2824908E+00
   maximum displ.:     0.7236732 α      in ANC's #20, #21, #27, ...

........................................................................
.............................. CYCLE    3 ..............................
........................................................................
   1    -12.3756463 -0.123756E+02  0.300E+00    0.31       0.0  T
   2    -11.9416399  0.434006E+00  0.547E+00    0.50       1.0  T
   3    -11.7373133  0.204327E+00  0.759E+00    0.44       1.0  T
   4    -12.1315422 -0.394229E+00  0.469E+00    0.54       1.0  T
   5    -12.4020462 -0.270504E+00  0.143E+00    0.30       1.0  T
   6    -12.2968064  0.105240E+00  0.299E+00    0.23       1.0  T
   7    -12.4047339 -0.107927E+00  0.144E+00    0.29       1.0  T
   8    -12.4250516 -0.203178E-01  0.648E-01    0.30       1.0  T
   9    -12.3972981  0.277535E-01  0.174E+00    0.38       1.0  T
  10    -12.3876685  0.962960E-02  0.195E+00    0.40       1.0  T
  11    -12.3877929 -0.124342E-03  0.195E+00    0.40       1.0  T
  12    -12.4174796 -0.296867E-01  0.101E+00    0.34       1.0  T
  13    -12.4277722 -0.102925E-01  0.572E-01    0.32       1.0  T
  14    -12.4278561 -0.839219E-04  0.400E-01    0.32       1.0  T
  15    -12.4276241  0.231964E-03  0.399E-01    0.33       1.0  T
  16    -12.4283365 -0.712430E-03  0.217E-01    0.33       1.0  T
  17    -12.4280202  0.316365E-03  0.257E-01    0.33       1.0  T
  18    -12.4283841 -0.363920E-03  0.957E-02    0.33       1.0  T
  19    -12.4284393 -0.552495E-04  0.160E-02    0.34       1.9  T
  20    -12.4284368  0.253778E-05  0.238E-02    0.34       1.3  T
  21    -12.4284357  0.110461E-05  0.247E-02    0.34       1.2  T
  22    -12.4284394 -0.373723E-05  0.110E-02    0.34       2.7  T
  23    -12.4284400 -0.576691E-06  0.704E-03    0.34       4.3  T
  24    -12.4284403 -0.317208E-06  0.252E-03    0.34      12.0  T
  25    -12.4284404 -0.495647E-07  0.294E-04    0.34     102.7  T
  26    -12.4284404  0.661272E-09  0.387E-04    0.34      78.0  T
     SCC iter.                  ...        0 min,  0.005 sec
     gradient                   ...        0 min,  0.001 sec
 * total energy  :   -12.2965179 Eh     change       -0.2587951E+00 Eh
   gradient norm :     0.2242437 Eh/α   predicted    -0.2740040E+00 (   5.88%)
   displ. norm   :     0.8956694 α      lambda       -0.1962270E+00
   maximum displ.:     0.5261113 α      in ANC's #20, #21, #27, ...

........................................................................
.............................. CYCLE    4 ..............................
........................................................................
   1    -12.5129131 -0.125129E+02  0.478E+00    0.55       0.0  T
   2    -11.5671629  0.945750E+00  0.928E+00    0.64       1.0  T
   3    -12.4054861 -0.838323E+00  0.511E+00    1.46       1.0  T
   4    -12.7536778 -0.348192E+00  0.186E+00    0.59       1.0  T
   5    -12.6242803  0.129397E+00  0.323E+00    0.84       1.0  T
   6    -12.7400416 -0.115761E+00  0.163E+00    0.65       1.0  T
   7    -12.7441937 -0.415209E-02  0.175E+00    0.55       1.0  T
   8    -12.5944239  0.149770E+00  0.403E+00    0.55       1.0  T
   9    -12.6294864 -0.350624E-01  0.355E+00    0.54       1.0  T
  10    -12.6205496  0.893678E-02  0.367E+00    0.54       1.0  T
  11    -12.6578846 -0.373350E-01  0.316E+00    0.54       1.0  T
  12    -12.6890996 -0.312149E-01  0.255E+00    0.53       1.0  T
  13    -12.7518354 -0.627359E-01  0.101E+00    0.54       1.0  T
  14    -12.7618267 -0.999132E-02  0.502E-01    0.55       1.0  T
  15    -12.7619941 -0.167325E-03  0.500E-01    0.55       1.0  T
  16    -12.7638378 -0.184370E-02  0.315E-01    0.56       1.0  T
  17    -12.7640079 -0.170129E-03  0.288E-01    0.56       1.0  T
  18    -12.7649560 -0.948131E-03  0.345E-02    0.57       1.0  T
  19    -12.7649577 -0.168159E-05  0.211E-02    0.57       1.4  T
  20    -12.7649361  0.215973E-04  0.460E-02    0.57       1.0  T
  21    -12.7649433 -0.719027E-05  0.379E-02    0.57       1.0  T
  22    -12.7649527 -0.937134E-05  0.230E-02    0.57       1.3  T
  23    -12.7649564 -0.367909E-05  0.129E-02    0.57       2.3  T
  24    -12.7649580 -0.161702E-05  0.630E-04    0.57      47.8  T
  25    -12.7649578  0.136954E-06  0.350E-03    0.57       8.6  T
  26    -12.7649580 -0.136111E-06  0.611E-04    0.57      49.3  T
  27    -12.7649580 -0.336252E-08  0.275E-04    0.57     109.6  T
     SCC iter.                  ...        0 min,  0.005 sec
     gradient                   ...        0 min,  0.001 sec
 * total energy  :   -12.3753941 Eh     change       -0.7887618E-01 Eh
   gradient norm :     0.3239954 Eh/α   predicted    -0.1768225E+00 ( 124.18%)
   displ. norm   :     0.5539122 α      lambda       -0.1379488E+00
   maximum displ.:     0.2668317 α      in ANC's #10, #16, #23, ...

........................................................................
.............................. CYCLE    5 ..............................
........................................................................
   1    -12.6317969 -0.126318E+02  0.281E+00    0.61       0.0  T
   2      3.7434078  0.163752E+02  0.175E+01    1.46       1.0  T
   3    -11.7202242 -0.154636E+02  0.877E+00    0.66       1.0  T
   4    -12.6948710 -0.974647E+00  0.131E+00    0.51       1.0  T
   5    -12.2952891  0.399582E+00  0.611E+00    0.45       1.0  T
   6    -12.4966567 -0.201368E+00  0.436E+00    0.42       1.0  T
   7    -12.4673987  0.292581E-01  0.470E+00    0.44       1.0  T
   8    -12.4547065  0.126922E-01  0.469E+00    0.44       1.0  T
   9    -12.4670854 -0.123789E-01  0.415E+00    0.49       1.0  T
  10    -12.6626731 -0.195588E+00  0.195E+00    0.51       1.0  T
  11    -12.7051916 -0.425185E-01  0.270E+00    0.56       1.0  T
  12    -12.7088388 -0.364721E-02  0.132E+00    0.51       1.0  T
  13    -12.7057452  0.309353E-02  0.857E-01    0.50       1.0  T
  14    -12.7070602 -0.131496E-02  0.592E-01    0.49       1.0  T
  15    -12.7055168  0.154338E-02  0.655E-01    0.50       1.0  T
  16    -12.7084921 -0.297523E-02  0.351E-01    0.49       1.0  T
  17    -12.7086474 -0.155344E-03  0.268E-01    0.49       1.0  T
  18    -12.7089525 -0.305153E-03  0.158E-01    0.49       1.0  T
  19    -12.7090247 -0.721442E-04  0.737E-02    0.50       1.0  T
  20    -12.7090437 -0.190489E-04  0.388E-02    0.50       1.0  T
  21    -12.7090558 -0.120877E-04  0.411E-02    0.50       1.0  T
  22    -12.7090572 -0.138284E-05  0.399E-02    0.50       1.0  T
  23    -12.7090576 -0.403836E-06  0.344E-02    0.50       1.0  T
  24    -12.7090577 -0.437338E-07  0.301E-02    0.50       1.0  T
  25    -12.7090577 -0.695655E-07  0.249E-02    0.50       1.2  T
  26    -12.7090578 -0.602668E-07  0.183E-02    0.50       1.7  T
  27    -12.7090578 -0.573886E-07  0.840E-03    0.50       3.6  T
  28    -12.7090579 -0.131458E-07  0.272E-03    0.50      11.1  T
  29    -12.7090579 -0.150847E-08  0.671E-04    0.50      45.0  T
  30    -12.7090579 -0.600284E-10  0.305E-04    0.50      99.0  T
     SCC iter.                  ...        0 min,  0.006 sec
     gradient                   ...        0 min,  0.000 sec
 * total energy  :   -12.4358227 Eh     change       -0.6042866E-01 Eh
   gradient norm :     0.1561418 Eh/α   predicted    -0.9013703E-01 (  49.16%)
   displ. norm   :     0.7534210 α      lambda       -0.8219055E-01
   maximum displ.:     0.5072478 α      in ANC's #16, #10, #5, ...

........................................................................
.............................. CYCLE    6 ..............................
........................................................................
   1    -12.6254980 -0.126255E+02  0.435E+00    1.10       0.0  T
   2      1.5248668  0.141504E+02  0.160E+01    0.76       1.0  T
   3    -12.3304547 -0.138553E+02  0.462E+00    1.31       1.0  T
   4    -12.5554689 -0.225014E+00  0.301E+00    1.47       1.0  T
   5    -12.6145757 -0.591068E-01  0.236E+00    1.11       1.0  T
   6    -12.5946773  0.198983E-01  0.163E+00    1.46       1.0  T
   7    -12.5955186 -0.841268E-03  0.150E+00    1.47       1.0  T
   8    -12.6128877 -0.173691E-01  0.143E+00    1.40       1.0  T
   9    -12.6351954 -0.223077E-01  0.126E+00    1.31       1.0  T
  10    -12.6409426 -0.574721E-02  0.122E+00    1.28       1.0  T
  11    -12.6855059 -0.445633E-01  0.755E-01    1.09       1.0  T
  12    -12.6805505  0.495537E-02  0.829E-01    1.12       1.0  T
  13    -12.6829576 -0.240711E-02  0.758E-01    1.12       1.0  T
  14    -12.7071038 -0.241462E-01  0.445E-01    0.90       1.0  T
  15    -12.7063724  0.731496E-03  0.225E-01    0.97       1.0  T
  16    -12.7074287 -0.105638E-02  0.155E-01    0.95       1.0  T
  17    -12.7076516 -0.222875E-03  0.131E-01    0.93       1.0  T
  18    -12.7075719  0.796875E-04  0.121E-01    0.92       1.0  T
  19    -12.7077141 -0.142181E-03  0.110E-02    0.94       2.7  T
  20    -12.7076862  0.279015E-04  0.345E-02    0.93       1.0  T
  21    -12.7077138 -0.276089E-04  0.122E-02    0.94       2.5  T
  22    -12.7077187 -0.491450E-05  0.330E-03    0.94       9.1  T
  23    -12.7077192 -0.488221E-06  0.162E-03    0.94      18.6  T
  24    -12.7077192 -0.250542E-08  0.305E-04    0.94      98.7  T
  25    -12.7077192  0.789994E-09  0.356E-04    0.94      84.7  T
     SCC iter.                  ...        0 min,  0.005 sec
     gradient                   ...        0 min,  0.001 sec
 * total energy  :   -12.4697947 Eh     change       -0.3397199E-01 Eh
   gradient norm :     0.1519633 Eh/α   predicted    -0.6442271E-01 (  89.63%)
   displ. norm   :     0.7475728 α      lambda       -0.7576764E-01
   maximum displ.:     0.4975428 α      in ANC's #16, #10, #12, ...

........................................................................
.............................. CYCLE    7 ..............................
........................................................................
   1    -12.7800013 -0.127800E+02  0.368E+00    0.92       0.0  T
   2    -12.4460897  0.333912E+00  0.489E+00    1.42       1.0  T
   3    -12.2940793  0.152010E+00  0.497E+00    0.54       1.0  T
   4    -12.6260469 -0.331968E+00  0.325E+00    1.22       1.0  T
   5    -12.7279563 -0.101909E+00  0.210E+00    1.08       1.0  T
   6    -12.7842012 -0.562450E-01  0.131E+00    1.07       1.0  T
   7    -12.8018945 -0.176933E-01  0.978E-01    1.03       1.0  T
   8    -12.8019966 -0.102063E-03  0.923E-01    1.03       1.0  T
   9    -12.8141371 -0.121405E-01  0.451E-01    0.99       1.0  T
  10    -12.8171980 -0.306093E-02  0.179E-01    0.96       1.0  T
  11    -12.8172550 -0.569757E-04  0.105E-01    0.96       1.0  T
  12    -12.8172657 -0.107699E-04  0.661E-02    0.97       1.0  T
  13    -12.8171556  0.110182E-03  0.905E-02    0.97       1.0  T
  14    -12.8172995 -0.143960E-03  0.159E-02    0.96       1.9  T
  15    -12.8173032 -0.367877E-05  0.152E-02    0.96       2.0  T
  16    -12.8173040 -0.756425E-06  0.416E-03    0.96       7.2  T
  17    -12.8173041 -0.142063E-06  0.934E-04    0.96      32.3  T
  18    -12.8173041 -0.899560E-09  0.641E-04    0.96      47.0  T
     SCC iter.                  ...        0 min,  0.003 sec
     gradient                   ...        0 min,  0.000 sec
 * total energy  :   -12.5124897 Eh     change       -0.4269499E-01 Eh
   gradient norm :     0.1537316 Eh/α   predicted    -0.5905576E-01 (  38.32%)
   displ. norm   :     0.6256352 α      lambda       -0.6942260E-01
   maximum displ.:     0.2877276 α      in ANC's #20, #10, #3, ...

........................................................................
.............................. CYCLE    8 ..............................
........................................................................
   1    -12.8634698 -0.128635E+02  0.308E+00    0.54       0.0  T
   2    -12.7568198  0.106650E+00  0.315E+00    0.64       1.0  T
   3    -12.8217912 -0.649715E-01  0.278E+00    0.50       1.0  T
   4    -12.7222816  0.995096E-01  0.350E+00    0.80       1.0  T
   5    -12.8721174 -0.149836E+00  0.133E+00    0.55       1.0  T
   6    -12.8842424 -0.121250E-01  0.538E-01    0.64       1.0  T
   7    -12.8855966 -0.135422E-02  0.379E-01    0.63       1.0  T
   8    -12.8855954  0.124196E-05  0.253E-01    0.64       1.0  T
   9    -12.8859795 -0.384163E-03  0.146E-01    0.63       1.0  T
  10    -12.8860158 -0.362725E-04  0.127E-01    0.63       1.0  T
  11    -12.8860415 -0.257128E-04  0.103E-01    0.62       1.0  T
  12    -12.8860506 -0.909199E-05  0.554E-02    0.63       1.0  T
  13    -12.8860568 -0.617450E-05  0.165E-02    0.62       1.8  T
  14    -12.8860582 -0.145859E-05  0.718E-03    0.62       4.2  T
  15    -12.8860581  0.133473E-06  0.607E-03    0.62       5.0  T
  16    -12.8860585 -0.435764E-06  0.157E-03    0.62      19.2  T
  17    -12.8860585  0.364333E-09  0.721E-04    0.62      41.8  T
  18    -12.8860585 -0.267529E-08  0.168E-04    0.62     179.5  T
     SCC iter.                  ...        0 min,  0.004 sec
     gradient                   ...        0 min,  0.001 sec
 * total energy  :   -12.5283102 Eh     change       -0.1582052E-01 Eh
   gradient norm :     0.2033674 Eh/α   predicted    -0.4829796E-01 ( 205.29%)
   displ. norm   :     0.5648992 α      lambda       -0.6626622E-01
   maximum displ.:     0.2334940 α      in ANC's #11, #12, #10, ...

........................................................................
.............................. CYCLE    9 ..............................
........................................................................
   1    -12.8344092 -0.128344E+02  0.278E+00    1.00       0.0  T
   2    -12.6893348  0.145074E+00  0.278E+00    0.71       1.0  T
   3    -12.6078131  0.815217E-01  0.396E+00    1.14       1.0  T
   4    -12.7766485 -0.168835E+00  0.237E+00    1.06       1.0  T
   5    -12.8207143 -0.440659E-01  0.138E+00    1.00       1.0  T
   6    -12.8474851 -0.267708E-01  0.509E-01    0.96       1.0  T
   7    -12.8466926  0.792562E-03  0.541E-01    0.96       1.0  T
   8    -12.8467384 -0.457832E-04  0.489E-01    0.96       1.0  T
   9    -12.8488678 -0.212946E-02  0.146E-01    0.94       1.0  T
  10    -12.8490660 -0.198177E-03  0.796E-02    0.94       1.0  T
  11    -12.8490885 -0.225396E-04  0.476E-02    0.94       1.0  T
  12    -12.8491313 -0.427891E-04  0.148E-02    0.94       2.0  T
  13    -12.8491329 -0.153686E-05  0.682E-03    0.94       4.4  T
  14    -12.8491333 -0.397077E-06  0.363E-03    0.94       8.3  T
  15    -12.8491332  0.381714E-07  0.354E-03    0.94       8.5  T
  16    -12.8491334 -0.211227E-06  0.102E-03    0.94      29.4  T
  17    -12.8491334 -0.161373E-07  0.807E-05    0.94     373.5  T
  18    -12.8491334 -0.424141E-10  0.159E-05    0.94    1892.7  T
     SCC iter.                  ...        0 min,  0.003 sec
     gradient                   ...        0 min,  0.000 sec
 * total energy  :   -12.5419609 Eh     change       -0.1365071E-01 Eh
   gradient norm :     0.1932265 Eh/α   predicted    -0.4370626E-01 ( 220.18%)
   displ. norm   :     0.6213373 α      lambda       -0.6881369E-01
   maximum displ.:     0.3175658 α      in ANC's #10, #5, #11, ...

........................................................................
.............................. CYCLE   10 ..............................
........................................................................
   1    -12.8222981 -0.128223E+02  0.240E+00    0.93       0.0  T
   2    -12.4439666  0.378331E+00  0.436E+00    0.33       1.0  T
   3    -12.7331535 -0.289187E+00  0.256E+00    0.98       1.0  T
   4    -12.8320315 -0.988779E-01  0.138E+00    0.88       1.0  T
   5    -12.8411094 -0.907791E-02  0.543E-01    0.90       1.0  T
   6    -12.8419499 -0.840531E-03  0.482E-01    0.89       1.0  T
   7    -12.8429941 -0.104416E-02  0.395E-01    0.89       1.0  T
   8    -12.8439279 -0.933851E-03  0.199E-01    0.87       1.0  T
   9    -12.8441792 -0.251286E-03  0.560E-02    0.87       1.0  T
  10    -12.8441856 -0.635937E-05  0.420E-02    0.87       1.0  T
  11    -12.8442020 -0.164426E-04  0.137E-02    0.87       2.2  T
  12    -12.8442025 -0.525189E-06  0.105E-02    0.87       2.9  T
  13    -12.8442044 -0.192158E-05  0.464E-03    0.87       6.5  T
  14    -12.8442043  0.163175E-06  0.488E-03    0.87       6.2  T
  15    -12.8442047 -0.373643E-06  0.258E-04    0.87     117.1  T
  16    -12.8442047  0.366240E-09  0.287E-04    0.87     105.1  T
     SCC iter.                  ...        0 min,  0.003 sec
     gradient                   ...        0 min,  0.000 sec
 * total energy  :   -12.5412627 Eh     change        0.6982304E-03 Eh
   gradient norm :     0.2198421 Eh/α   predicted    -0.4768994E-01 (*******%)
   displ. norm   :     0.4677785 α      lambda       -0.6141155E-01
   maximum displ.:     0.2041099 α      in ANC's #10, #21, #12, ...

........................................................................
.............................. CYCLE   11 ..............................
........................................................................
   1    -12.8571718 -0.128572E+02  0.351E+00    0.44       0.0  T
   2    -12.5955540  0.261618E+00  0.405E+00    0.79       1.0  T
   3    -12.0791414  0.516413E+00  0.781E+00    0.23       1.0  T
   4    -12.1730873 -0.939460E-01  0.742E+00    0.24       1.0  T
   5    -11.5909531  0.582134E+00  0.959E+00    0.24       1.0  T
   6    -12.6964461 -0.110549E+01  0.320E+00    0.48       1.0  T
   7    -12.8597086 -0.163262E+00  0.118E+00    0.59       1.0  T
   8    -12.8834520 -0.237434E-01  0.101E+00    0.60       1.0  T
   9    -12.8870515 -0.359949E-02  0.900E-01    0.61       1.0  T
  10    -12.8894462 -0.239468E-02  0.425E-01    0.60       1.0  T
  11    -12.8827080  0.673814E-02  0.876E-01    0.56       1.0  T
  12    -12.8889628 -0.625481E-02  0.286E-01    0.59       1.0  T
  13    -12.8896404 -0.677520E-03  0.350E-01    0.60       1.0  T
  14    -12.8896630 -0.226209E-04  0.326E-01    0.60       1.0  T
  15    -12.8896177  0.452791E-04  0.245E-01    0.60       1.0  T
  16    -12.8895724  0.452557E-04  0.197E-01    0.60       1.0  T
  17    -12.8895730 -0.610173E-06  0.185E-01    0.60       1.0  T
  18    -12.8895872 -0.141403E-04  0.181E-01    0.60       1.0  T
  19    -12.8896003 -0.130858E-04  0.175E-01    0.60       1.0  T
  20    -12.8896167 -0.164187E-04  0.155E-01    0.60       1.0  T
  21    -12.8896341 -0.173609E-04  0.127E-01    0.60       1.0  T
  22    -12.8896512 -0.171741E-04  0.903E-02    0.59       1.0  T
  23    -12.8896638 -0.126148E-04  0.521E-02    0.59       1.0  T
  24    -12.8896693 -0.542378E-05  0.245E-02    0.59       1.2  T
  25    -12.8896709 -0.161831E-05  0.768E-03    0.59       3.9  T
  26    -12.8896711 -0.234215E-06  0.186E-03    0.59      16.2  T
  27    -12.8896711 -0.237813E-08  0.260E-04    0.59     115.8  T
  28    -12.8896711  0.409431E-09  0.384E-04    0.59      78.5  T
     SCC iter.                  ...        0 min,  0.004 sec
     gradient                   ...        0 min,  0.001 sec
 * total energy  :   -12.5574812 Eh     change       -0.1621853E-01 Eh
   gradient norm :     0.2607516 Eh/α   predicted    -0.3742470E-01 ( 130.75%)
   displ. norm   :     0.6207342 α      lambda       -0.1100620E+00
   maximum displ.:     0.2842915 α      in ANC's #23, #11, #27, ...

........................................................................
.............................. CYCLE   12 ..............................
........................................................................
   1    -12.8939771 -0.128940E+02  0.309E+00    0.44       0.0  T
   2    -12.6744080  0.219569E+00  0.446E+00    0.55       1.0  T
   3    -12.9144258 -0.240018E+00  0.197E+00    0.45       1.0  T
   4    -12.8900958  0.243300E-01  0.232E+00    0.50       1.0  T
   5    -12.8772035  0.128923E-01  0.203E+00    0.43       1.0  T
   6    -12.9395956 -0.623921E-01  0.643E-01    0.48       1.0  T
   7    -12.9446959 -0.510036E-02  0.277E-01    0.47       1.0  T
   8    -12.9450472 -0.351286E-03  0.206E-01    0.48       1.0  T
   9    -12.9452113 -0.164113E-03  0.989E-02    0.48       1.0  T
  10    -12.9453233 -0.111940E-03  0.341E-02    0.48       1.0  T
  11    -12.9453392 -0.159457E-04  0.948E-03    0.48       3.2  T
  12    -12.9453388  0.410546E-06  0.100E-02    0.48       3.0  T
  13    -12.9453396 -0.821994E-06  0.200E-03    0.48      15.1  T
  14    -12.9453397 -0.300099E-07  0.628E-04    0.48      48.0  T
  15    -12.9453397 -0.225678E-08  0.136E-04    0.48     221.2  T
     SCC iter.                  ...        0 min,  0.002 sec
     gradient                   ...        0 min,  0.000 sec
 * total energy  :   -12.4957282 Eh     change        0.6175306E-01 Eh
   gradient norm :     0.5393797 Eh/α   predicted    -0.7623504E-01 (-223.45%)
   displ. norm   :     0.3820349 α      lambda       -0.1752015E+00
   maximum displ.:     0.1933261 α      in ANC's #23, #10, #5, ...

........................................................................
.............................. CYCLE   13 ..............................
........................................................................
   1    -12.8501539 -0.128502E+02  0.242E+00    0.70       0.0  T
   2    -11.1522636  0.169789E+01  0.103E+01    0.38       1.0  T
   3    -12.8479504 -0.169569E+01  0.210E+00    0.59       1.0  T
   4    -12.8463495  0.160089E-02  0.200E+00    0.55       1.0  T
   5    -12.8685342 -0.221847E-01  0.138E+00    0.66       1.0  T
   6    -12.8920261 -0.234919E-01  0.546E-01    0.61       1.0  T
   7    -12.8895526  0.247350E-02  0.569E-01    0.62       1.0  T
   8    -12.8900943 -0.541732E-03  0.520E-01    0.61       1.0  T
   9    -12.8923291 -0.223477E-02  0.443E-01    0.60       1.0  T
  10    -12.8929878 -0.658733E-03  0.398E-01    0.60       1.0  T
  11    -12.8932210 -0.233179E-03  0.356E-01    0.60       1.0  T
  12    -12.8931416  0.794290E-04  0.370E-01    0.60       1.0  T
  13    -12.8936815 -0.539915E-03  0.284E-01    0.60       1.0  T
  14    -12.8940367 -0.355164E-03  0.151E-01    0.60       1.0  T
  15    -12.8941439 -0.107291E-03  0.692E-03    0.60       4.4  T
  16    -12.8941388  0.513882E-05  0.413E-02    0.60       1.0  T
  17    -12.8941439 -0.511984E-05  0.119E-02    0.60       2.5  T
  18    -12.8941442 -0.268309E-06  0.537E-03    0.60       5.6  T
  19    -12.8941443 -0.106261E-06  0.598E-04    0.60      50.4  T
  20    -12.8941443 -0.960313E-09  0.480E-04    0.60      62.9  T
     SCC iter.                  ...        0 min,  0.004 sec
     gradient                   ...        0 min,  0.000 sec
 * total energy  :   -12.5812618 Eh     change       -0.8553359E-01 Eh
   gradient norm :     0.1448054 Eh/α   predicted    -0.1003862E+00 (  17.36%)
   displ. norm   :     0.4740050 α      lambda       -0.3928962E-01
   maximum displ.:     0.2461256 α      in ANC's #3, #1, #21, ...

........................................................................
.............................. CYCLE   14 ..............................
........................................................................
   1    -12.9716406 -0.129716E+02  0.272E+00    0.48       0.0  T
   2    -12.9424767  0.291639E-01  0.172E+00    0.53       1.0  T
   3    -12.1670735  0.775403E+00  0.838E+00    0.29       1.0  T
   4    -12.8907757 -0.723702E+00  0.319E+00    0.45       1.0  T
   5    -12.9666961 -0.759204E-01  0.942E-01    0.50       1.0  T
   6    -12.9744824 -0.778631E-02  0.370E-01    0.54       1.0  T
   7    -12.9755749 -0.109253E-02  0.263E-01    0.52       1.0  T
   8    -12.9753866  0.188342E-03  0.275E-01    0.53       1.0  T
   9    -12.9760338 -0.647259E-03  0.167E-01    0.52       1.0  T
  10    -12.9759993  0.345070E-04  0.170E-01    0.52       1.0  T
  11    -12.9760477 -0.483830E-04  0.153E-01    0.52       1.0  T
  12    -12.9760756 -0.278494E-04  0.127E-01    0.52       1.0  T
  13    -12.9761188 -0.432310E-04  0.993E-02    0.52       1.0  T
  14    -12.9761400 -0.212466E-04  0.608E-02    0.52       1.0  T
  15    -12.9761500 -0.994083E-05  0.359E-02    0.52       1.0  T
  16    -12.9761531 -0.309679E-05  0.409E-03    0.52       7.4  T
  17    -12.9761531 -0.503509E-07  0.988E-04    0.52      30.5  T
  18    -12.9761531 -0.180397E-08  0.124E-03    0.52      24.4  T
  19    -12.9761531 -0.418833E-08  0.302E-04    0.52      99.7  T
     SCC iter.                  ...        0 min,  0.004 sec
     gradient                   ...        0 min,  0.001 sec
 * total energy  :   -12.5852912 Eh     change       -0.4029412E-02 Eh
   gradient norm :     0.2448710 Eh/α   predicted    -0.2405862E-01 ( 497.08%)
   displ. norm   :     0.4426150 α      lambda       -0.4161382E-01
   maximum displ.:     0.2516031 α      in ANC's #10, #2, #5, ...

........................................................................
.............................. CYCLE   15 ..............................
........................................................................
   1    -12.9100528 -0.129101E+02  0.122E+00    0.49       0.0  T
   2    -12.9044731  0.557969E-02  0.930E-01    0.53       1.0  T
   3    -12.8432782  0.611949E-01  0.260E+00    0.45       1.0  T
   4    -12.9046904 -0.614122E-01  0.859E-01    0.48       1.0  T
   5    -12.9104048 -0.571445E-02  0.366E-01    0.50       1.0  T
   6    -12.9112725 -0.867662E-03  0.211E-01    0.50       1.0  T
   7    -12.9115962 -0.323746E-03  0.106E-01    0.50       1.0  T
   8    -12.9116574 -0.612295E-04  0.519E-02    0.50       1.0  T
   9    -12.9116789 -0.214991E-04  0.262E-02    0.50       1.2  T
  10    -12.9116806 -0.166153E-05  0.218E-02    0.50       1.4  T
  11    -12.9116824 -0.174402E-05  0.715E-03    0.50       4.2  T
  12    -12.9116826 -0.213051E-06  0.314E-03    0.50       9.6  T
  13    -12.9116826 -0.365011E-07  0.188E-03    0.50      16.0  T
  14    -12.9116826 -0.292532E-07  0.760E-04    0.50      39.7  T
  15    -12.9116826 -0.347759E-08  0.428E-04    0.50      70.5  T
     SCC iter.                  ...        0 min,  0.003 sec
     gradient                   ...        0 min,  0.001 sec
 * total energy  :   -12.6004567 Eh     change       -0.1516556E-01 Eh
   gradient norm :     0.0731752 Eh/α   predicted    -0.2488316E-01 (  64.08%)
   displ. norm   :     0.5829070 α      lambda       -0.2668724E-01
   maximum displ.:     0.3522302 α      in ANC's #4, #13, #2, ...

........................................................................
.............................. CYCLE   16 ..............................
........................................................................
   1    -12.9234674 -0.129235E+02  0.163E+00    0.47       0.0  T
   2    -12.8752648  0.482027E-01  0.213E+00    0.43       1.0  T
   3    -12.8773682 -0.210345E-02  0.208E+00    0.49       1.0  T
   4    -12.9226071 -0.452389E-01  0.446E-01    0.46       1.0  T
   5    -12.9246167 -0.200965E-02  0.267E-01    0.45       1.0  T
   6    -12.9250666 -0.449917E-03  0.149E-01    0.46       1.0  T
   7    -12.9249400  0.126676E-03  0.168E-01    0.45       1.0  T
   8    -12.9251128 -0.172809E-03  0.586E-02    0.45       1.0  T
   9    -12.9251211 -0.836992E-05  0.445E-02    0.45       1.0  T
  10    -12.9251368 -0.157055E-04  0.185E-02    0.45       1.6  T
  11    -12.9251391 -0.230364E-05  0.108E-02    0.45       2.8  T
  12    -12.9251400 -0.811895E-06  0.688E-03    0.45       4.4  T
  13    -12.9251405 -0.506212E-06  0.567E-04    0.45      53.2  T
  14    -12.9251405  0.974598E-10  0.490E-04    0.45      61.5  T
     SCC iter.                  ...        0 min,  0.003 sec
     gradient                   ...        0 min,  0.000 sec
 * total energy  :   -12.5811147 Eh     change        0.1934207E-01 Eh
   gradient norm :     0.2909331 Eh/α   predicted    -0.1787752E-01 (-192.43%)
   displ. norm   :     0.3540392 α      lambda       -0.7146219E-01
   maximum displ.:     0.1850909 α      in ANC's #2, #13, #15, ...

........................................................................
.............................. CYCLE   17 ..............................
........................................................................
   1    -12.9525467 -0.129525E+02  0.124E+00    0.40       0.0  T
   2    -12.8962784  0.562682E-01  0.208E+00    0.45       1.0  T
   3    -12.9205074 -0.242290E-01  0.189E+00    0.39       1.0  T
   4    -12.9437451 -0.232377E-01  0.836E-01    0.40       1.0  T
   5    -12.9563424 -0.125973E-01  0.294E-01    0.42       1.0  T
   6    -12.9564543 -0.111880E-03  0.185E-01    0.42       1.0  T
   7    -12.9564619 -0.756956E-05  0.182E-01    0.42       1.0  T
   8    -12.9564614  0.457299E-06  0.116E-01    0.42       1.0  T
   9    -12.9564094  0.519799E-04  0.118E-01    0.42       1.0  T
  10    -12.9564491 -0.396531E-04  0.965E-02    0.42       1.0  T
  11    -12.9565205 -0.714392E-04  0.238E-02    0.42       1.3  T
  12    -12.9565266 -0.605931E-05  0.572E-03    0.42       5.3  T
  13    -12.9565265  0.103223E-06  0.554E-03    0.42       5.4  T
  14    -12.9565266 -0.160210E-06  0.897E-04    0.42      33.6  T
  15    -12.9565266  0.366463E-08  0.709E-04    0.42      42.5  T
     SCC iter.                  ...        0 min,  0.003 sec
     gradient                   ...        0 min,  0.001 sec
 * total energy  :   -12.6125087 Eh     change       -0.3139402E-01 Eh
   gradient norm :     0.0635601 Eh/α   predicted    -0.4020976E-01 (  28.08%)
   displ. norm   :     0.5841106 α      lambda       -0.1747724E-01
   maximum displ.:     0.2841531 α      in ANC's #3, #1, #10, ...

........................................................................
.............................. CYCLE   18 ..............................
........................................................................
   1    -12.9139024 -0.129139E+02  0.212E+00    0.41       0.0  T
   2    -12.8661292  0.477732E-01  0.207E+00    0.43       1.0  T
   3    -12.5327848  0.333344E+00  0.655E+00    0.43       1.0  T
   4    -12.8211737 -0.288389E+00  0.328E+00    0.42       1.0  T
   5    -12.9026122 -0.814385E-01  0.105E+00    0.43       1.0  T
   6    -12.9146810 -0.120687E-01  0.404E-01    0.44       1.0  T
   7    -12.9160146 -0.133368E-02  0.309E-01    0.43       1.0  T
   8    -12.9154528  0.561799E-03  0.364E-01    0.44       1.0  T
   9    -12.9165407 -0.108785E-02  0.139E-01    0.43       1.0  T
  10    -12.9165285  0.121479E-04  0.136E-01    0.43       1.0  T
  11    -12.9165271  0.143779E-05  0.133E-01    0.43       1.0  T
  12    -12.9165657 -0.386358E-04  0.660E-02    0.43       1.0  T
  13    -12.9165725 -0.672885E-05  0.435E-02    0.43       1.0  T
  14    -12.9165776 -0.516486E-05  0.478E-03    0.43       6.3  T
  15    -12.9165777 -0.977853E-07  0.169E-03    0.43      17.9  T
  16    -12.9165777  0.910496E-08  0.211E-03    0.43      14.3  T
  17    -12.9165777 -0.956785E-08  0.148E-03    0.43      20.3  T
  18    -12.9165777 -0.534338E-08  0.349E-04    0.43      86.4  T
  19    -12.9165777 -0.250768E-09  0.213E-05    0.43    1412.3  T
     SCC iter.                  ...        0 min,  0.003 sec
     gradient                   ...        0 min,  0.000 sec
 * total energy  :   -12.6103209 Eh     change        0.2187815E-02 Eh
   gradient norm :     0.0968598 Eh/α   predicted    -0.1172013E-01 (-635.70%)
   displ. norm   :     0.3876231 α      lambda       -0.2184450E-01
   maximum displ.:     0.2843696 α      in ANC's #4, #6, #27, ...

........................................................................
.............................. CYCLE   19 ..............................
........................................................................
   1    -12.9582670 -0.129583E+02  0.109E+00    0.40       0.0  T
   2    -12.9541558  0.411120E-02  0.886E-01    0.40       1.0  T
   3    -12.9152668  0.388890E-01  0.198E+00    0.40       1.0  T
   4    -12.9454706 -0.302037E-01  0.907E-01    0.38       1.0  T
   5    -12.9586562 -0.131856E-01  0.138E-01    0.39       1.0  T
   6    -12.9585893  0.668786E-04  0.149E-01    0.39       1.0  T
   7    -12.9585463  0.430398E-04  0.146E-01    0.39       1.0  T
   8    -12.9586801 -0.133843E-03  0.653E-02    0.39       1.0  T
   9    -12.9587249 -0.448547E-04  0.215E-02    0.39       1.4  T
  10    -12.9587280 -0.306447E-05  0.766E-03    0.39       3.9  T
  11    -12.9587280  0.110250E-07  0.289E-03    0.39      10.4  T
  12    -12.9587279  0.114535E-06  0.445E-03    0.39       6.8  T
  13    -12.9587281 -0.176126E-06  0.197E-04    0.39     153.0  T
  14    -12.9587281 -0.119586E-09  0.816E-05    0.39     369.4  T
     SCC iter.                  ...        0 min,  0.002 sec
     gradient                   ...        0 min,  0.001 sec
 * total energy  :   -12.6240771 Eh     change       -0.1375622E-01 Eh
   gradient norm :     0.0444706 Eh/α   predicted    -0.1256333E-01 (  -8.67%)
   displ. norm   :     0.6225769 α      lambda       -0.1295052E-01
   maximum displ.:     0.4194161 α      in ANC's #4, #3, #15, ...

........................................................................
.............................. CYCLE   20 ..............................
........................................................................
   1    -12.9853111 -0.129853E+02  0.152E+00    0.34       0.0  T
   2    -12.9637247  0.215864E-01  0.164E+00    0.34       1.0  T
   3    -12.9017034  0.620212E-01  0.293E+00    0.36       1.0  T
   4    -12.9795407 -0.778373E-01  0.756E-01    0.35       1.0  T
   5    -12.9858926 -0.635195E-02  0.314E-01    0.35       1.0  T
   6    -12.9865938 -0.701145E-03  0.157E-01    0.35       1.0  T
   7    -12.9865572  0.365587E-04  0.180E-01    0.35       1.0  T
   8    -12.9866245 -0.672236E-04  0.114E-01    0.35       1.0  T
   9    -12.9865911  0.334086E-04  0.117E-01    0.35       1.0  T
  10    -12.9866755 -0.844426E-04  0.629E-02    0.35       1.0  T
  11    -12.9866994 -0.238820E-04  0.298E-02    0.35       1.0  T
  12    -12.9867059 -0.648734E-05  0.124E-02    0.35       2.4  T
  13    -12.9867069 -0.106719E-05  0.271E-03    0.35      11.1  T
  14    -12.9867070 -0.629043E-07  0.831E-04    0.35      36.3  T
  15    -12.9867070 -0.226511E-08  0.633E-04    0.35      47.6  T
     SCC iter.                  ...        0 min,  0.002 sec
     gradient                   ...        0 min,  0.001 sec
 * total energy  :   -12.6232544 Eh     change        0.8226454E-03 Eh
   gradient norm :     0.1171390 Eh/α   predicted    -0.8985098E-02 (*******%)
   displ. norm   :     0.3685494 α      lambda       -0.2090366E-01
   maximum displ.:     0.1906661 α      in ANC's #4, #3, #1, ...
 * RMSD in coord.:     2.0719489 α      energy gain  -0.8035334E+00 Eh

generating ANC from model Hessian ...
Using Lindh-Hessian (1995)
 Shifting diagonal of input Hessian by    1.0533068505389516E-002
 Lowest  eigenvalues of input Hessian
    0.010000    0.010297    0.010357    0.010413    0.010487    0.000000
    0.000000    0.000000    0.000000    0.000000    0.000000    0.010762
    0.010924    0.011117    0.011204    0.011442    0.011843    0.012219
 Highest eigenvalues
    0.650793    0.672307    0.857087    1.148110    2.101525    2.581936


........................................................................
.............................. CYCLE   21 ..............................
........................................................................
   1    -12.9848848 -0.129849E+02  0.108E+00    0.31       0.0  T
   2    -12.9803692  0.451564E-02  0.921E-01    0.31       1.0  T
   3    -12.9156006  0.647685E-01  0.256E+00    0.33       1.0  T
   4    -12.9774049 -0.618042E-01  0.671E-01    0.30       1.0  T
   5    -12.9851950 -0.779013E-02  0.136E-01    0.31       1.0  T
   6    -12.9852803 -0.852895E-04  0.811E-02    0.31       1.0  T
   7    -12.9852749  0.535051E-05  0.765E-02    0.31       1.0  T
   8    -12.9852888 -0.138369E-04  0.365E-02    0.31       1.0  T
   9    -12.9852950 -0.623419E-05  0.252E-02    0.31       1.2  T
  10    -12.9852972 -0.218655E-05  0.993E-03    0.31       3.0  T
  11    -12.9852964  0.734107E-06  0.133E-02    0.31       2.3  T
  12    -12.9852975 -0.102324E-05  0.784E-03    0.31       3.8  T
  13    -12.9852977 -0.280275E-06  0.505E-03    0.31       6.0  T
  14    -12.9852979 -0.177111E-06  0.195E-03    0.31      15.4  T
  15    -12.9852979 -0.212816E-07  0.755E-04    0.31      39.9  T
  16    -12.9852979 -0.395453E-08  0.999E-05    0.31     301.8  T
     SCC iter.                  ...        0 min,  0.003 sec
     gradient                   ...        0 min,  0.000 sec
 * total energy  :   -12.6339448 Eh     change       -0.1069037E-01 Eh
   gradient norm :     0.0365925 Eh/α   predicted     0.0000000E+00 (-100.00%)
   displ. norm   :     0.5166950 α      lambda       -0.7001449E-02
   maximum displ.:     0.3685287 α      in ANC's #9, #12, #8, ...

........................................................................
.............................. CYCLE   22 ..............................
........................................................................
   1    -12.9934058 -0.129934E+02  0.150E+00    0.33       0.0  T
   2    -12.9922081  0.119771E-02  0.101E+00    0.32       1.0  T
   3    -12.7901958  0.202012E+00  0.451E+00    0.38       1.0  T
   4    -12.9924616 -0.202266E+00  0.331E-01    0.33       1.0  T
   5    -12.9924376  0.239992E-04  0.336E-01    0.33       1.0  T
   6    -12.9934548 -0.101717E-02  0.157E-01    0.33       1.0  T
   7    -12.9935038 -0.489563E-04  0.997E-02    0.33       1.0  T
   8    -12.9935876 -0.837952E-04  0.596E-02    0.33       1.0  T
   9    -12.9935555  0.320488E-04  0.702E-02    0.33       1.0  T
  10    -12.9935669 -0.113934E-04  0.559E-02    0.33       1.0  T
  11    -12.9935877 -0.208055E-04  0.282E-02    0.33       1.1  T
  12    -12.9935923 -0.456044E-05  0.155E-02    0.33       2.0  T
  13    -12.9935934 -0.113940E-05  0.883E-03    0.33       3.4  T
  14    -12.9935937 -0.266981E-06  0.559E-03    0.33       5.4  T
  15    -12.9935938 -0.863528E-07  0.429E-03    0.33       7.0  T
  16    -12.9935939 -0.118110E-06  0.683E-04    0.33      44.2  T
  17    -12.9935939 -0.353253E-08  0.111E-04    0.33     271.8  T
     SCC iter.                  ...        0 min,  0.003 sec
     gradient                   ...        0 min,  0.000 sec
 * total energy  :   -12.6390041 Eh     change       -0.5059250E-02 Eh
   gradient norm :     0.0202474 Eh/α   predicted    -0.4435324E-02 ( -12.33%)
   displ. norm   :     0.6148246 α      lambda       -0.5407602E-02
   maximum displ.:     0.4241892 α      in ANC's #9, #13, #8, ...

........................................................................
.............................. CYCLE   23 ..............................
........................................................................
   1    -12.9922524 -0.129923E+02  0.164E+00    0.34       0.0  T
   2    -12.9916034  0.648971E-03  0.113E+00    0.34       1.0  T
   3    -12.8096897  0.181914E+00  0.435E+00    0.41       1.0  T
   4    -12.9897660 -0.180076E+00  0.474E-01    0.35       1.0  T
   5    -12.9921437 -0.237771E-02  0.270E-01    0.35       1.0  T
   6    -12.9923805 -0.236773E-03  0.229E-01    0.35       1.0  T
   7    -12.9919830  0.397494E-03  0.260E-01    0.35       1.0  T
   8    -12.9925395 -0.556444E-03  0.847E-02    0.35       1.0  T
   9    -12.9925328  0.664976E-05  0.458E-02    0.35       1.0  T
  10    -12.9925288  0.398970E-05  0.372E-02    0.35       1.0  T
  11    -12.9925432 -0.143427E-04  0.903E-03    0.35       3.3  T
  12    -12.9925436 -0.450830E-06  0.304E-03    0.35       9.9  T
  13    -12.9925436 -0.385137E-09  0.223E-03    0.35      13.5  T
  14    -12.9925437 -0.406654E-07  0.219E-04    0.35     137.4  T
  15    -12.9925437 -0.896527E-10  0.109E-04    0.35     275.5  T
     SCC iter.                  ...        0 min,  0.002 sec
     gradient                   ...        0 min,  0.001 sec
 * total energy  :   -12.6421636 Eh     change       -0.3159484E-02 Eh
   gradient norm :     0.0322083 Eh/α   predicted    -0.3725870E-02 (  17.93%)
   displ. norm   :     0.5695475 α      lambda       -0.5166139E-02
   maximum displ.:     0.3517551 α      in ANC's #9, #6, #14, ...

........................................................................
.............................. CYCLE   24 ..............................
........................................................................
   1    -13.0019334 -0.130019E+02  0.116E+00    0.30       0.0  T
   2    -12.9708170  0.311164E-01  0.193E+00    0.28       1.0  T
   3    -12.9911411 -0.203241E-01  0.132E+00    0.32       1.0  T
   4    -13.0010632 -0.992211E-02  0.442E-01    0.31       1.0  T
   5    -13.0024362 -0.137301E-02  0.391E-01    0.30       1.0  T
   6    -13.0010536  0.138260E-02  0.547E-01    0.30       1.0  T
   7    -13.0027348 -0.168118E-02  0.281E-01    0.30       1.0  T
   8    -13.0032230 -0.488227E-03  0.125E-01    0.31       1.0  T
   9    -13.0031981  0.248647E-04  0.119E-01    0.31       1.0  T
  10    -13.0032567 -0.586072E-04  0.570E-02    0.31       1.0  T
  11    -13.0032811 -0.243656E-04  0.171E-02    0.31       1.8  T
  12    -13.0032773  0.377563E-05  0.273E-02    0.31       1.1  T
  13    -13.0032802 -0.291718E-05  0.160E-02    0.31       1.9  T
  14    -13.0032820 -0.177375E-05  0.553E-03    0.31       5.5  T
  15    -13.0032820 -0.209396E-07  0.338E-03    0.31       8.9  T
  16    -13.0032821 -0.785317E-07  0.801E-04    0.31      37.7  T
  17    -13.0032821 -0.179973E-09  0.131E-04    0.31     230.4  T
     SCC iter.                  ...        0 min,  0.002 sec
     gradient                   ...        0 min,  0.001 sec
 * total energy  :   -12.6459376 Eh     change       -0.3774048E-02 Eh
   gradient norm :     0.0353632 Eh/α   predicted    -0.3420980E-02 (  -9.36%)
   displ. norm   :     0.6519069 α      lambda       -0.4934079E-02
   maximum displ.:     0.4587294 α      in ANC's #9, #2, #6, ...

........................................................................
.............................. CYCLE   25 ..............................
........................................................................
   1    -12.9986649 -0.129987E+02  0.113E+00    0.28       0.0  T
   2    -12.9986228  0.420656E-04  0.705E-01    0.28       1.0  T
   3    -12.9953255  0.329726E-02  0.504E-01    0.28       1.0  T
   4    -12.9977352 -0.240969E-02  0.324E-01    0.29       1.0  T
   5    -12.9985195 -0.784257E-03  0.159E-01    0.28       1.0  T
   6    -12.9986806 -0.161152E-03  0.826E-02    0.28       1.0  T
   7    -12.9987422 -0.615314E-04  0.250E-02    0.28       1.2  T
   8    -12.9987488 -0.663591E-05  0.102E-02    0.28       2.9  T
   9    -12.9987492 -0.354505E-06  0.742E-03    0.28       4.1  T
  10    -12.9987490  0.109758E-06  0.546E-03    0.28       5.5  T
  11    -12.9987491 -0.564168E-07  0.421E-03    0.28       7.2  T
  12    -12.9987492 -0.822309E-07  0.131E-03    0.28      22.9  T
  13    -12.9987492 -0.755333E-08  0.408E-04    0.28      73.9  T
  14    -12.9987492 -0.782622E-09  0.222E-04    0.28     135.6  T
     SCC iter.                  ...        0 min,  0.002 sec
     gradient                   ...        0 min,  0.000 sec
 * total energy  :   -12.6495936 Eh     change       -0.3656020E-02 Eh
   gradient norm :     0.0289596 Eh/α   predicted    -0.3515488E-02 (  -3.84%)
   displ. norm   :     0.6046247 α      lambda       -0.4922108E-02
   maximum displ.:     0.2886285 α      in ANC's #6, #9, #2, ...

........................................................................
.............................. CYCLE   26 ..............................
........................................................................
   1    -13.0115281 -0.130115E+02  0.135E+00    0.23       0.0  T
   2    -13.0069308  0.459735E-02  0.110E+00    0.22       1.0  T
   3    -12.9132975  0.936333E-01  0.342E+00    0.30       1.0  T
   4    -13.0021193 -0.888218E-01  0.730E-01    0.24       1.0  T
   5    -13.0112891 -0.916981E-02  0.278E-01    0.24       1.0  T
   6    -13.0119430 -0.653857E-03  0.791E-02    0.24       1.0  T
   7    -13.0119333  0.966075E-05  0.516E-02    0.24       1.0  T
   8    -13.0119285  0.486015E-05  0.601E-02    0.24       1.0  T
   9    -13.0119429 -0.144560E-04  0.396E-02    0.24       1.0  T
  10    -13.0119512 -0.824359E-05  0.121E-02    0.24       2.5  T
  11    -13.0119509  0.252035E-06  0.116E-02    0.24       2.6  T
  12    -13.0119499  0.103595E-05  0.146E-02    0.24       2.1  T
  13    -13.0119508 -0.905662E-06  0.109E-02    0.24       2.8  T
  14    -13.0119513 -0.536801E-06  0.475E-03    0.24       6.3  T
  15    -13.0119513 -0.198057E-07  0.383E-03    0.24       7.9  T
  16    -13.0119514 -0.698893E-07  0.110E-03    0.24      27.5  T
  17    -13.0119514 -0.643699E-08  0.795E-05    0.24     379.5  T
  18    -13.0119514 -0.130402E-10  0.286E-05    0.24    1054.4  T
     SCC iter.                  ...        0 min,  0.003 sec
     gradient                   ...        0 min,  0.001 sec
 * total energy  :   -12.6526961 Eh     change       -0.3102518E-02 Eh
   gradient norm :     0.0213169 Eh/α   predicted    -0.3360751E-02 (   8.32%)
   displ. norm   :     0.6464527 α      lambda       -0.4433416E-02
   maximum displ.:     0.3199375 α      in ANC's #9, #6, #2, ...

........................................................................
.............................. CYCLE   27 ..............................
........................................................................
   1    -13.0081525 -0.130082E+02  0.141E+00    0.20       0.0  T
   2    -13.0051690  0.298347E-02  0.966E-01    0.21       1.0  T
   3    -12.9279206  0.772484E-01  0.288E+00    0.15       1.0  T
   4    -13.0070530 -0.791324E-01  0.319E-01    0.20       1.0  T
   5    -13.0078569 -0.803845E-03  0.303E-01    0.20       1.0  T
   6    -13.0077745  0.824270E-04  0.326E-01    0.20       1.0  T
   7    -13.0077784 -0.392805E-05  0.316E-01    0.20       1.0  T
   8    -13.0082693 -0.490865E-03  0.139E-01    0.20       1.0  T
   9    -13.0083622 -0.929710E-04  0.104E-01    0.20       1.0  T
  10    -13.0083502  0.120623E-04  0.102E-01    0.20       1.0  T
  11    -13.0083884 -0.382656E-04  0.615E-02    0.20       1.0  T
  12    -13.0083970 -0.855948E-05  0.385E-02    0.20       1.0  T
  13    -13.0084035 -0.653912E-05  0.194E-02    0.20       1.6  T
  14    -13.0084048 -0.129204E-05  0.120E-02    0.20       2.5  T
  15    -13.0084062 -0.136399E-05  0.206E-03    0.20      14.6  T
  16    -13.0084062 -0.771062E-08  0.151E-03    0.20      20.0  T
  17    -13.0084062 -0.546205E-08  0.290E-04    0.20     103.9  T
  18    -13.0084062  0.864890E-10  0.231E-04    0.20     130.6  T
     SCC iter.                  ...        0 min,  0.005 sec
     gradient                   ...        0 min,  0.001 sec
 * total energy  :   -12.6546342 Eh     change       -0.1938097E-02 Eh
   gradient norm :     0.0436798 Eh/α   predicted    -0.3143086E-02 (  62.17%)
   displ. norm   :     0.4369419 α      lambda       -0.3528702E-02
   maximum displ.:     0.2168749 α      in ANC's #12, #9, #6, ...

........................................................................
.............................. CYCLE   28 ..............................
........................................................................
   1    -13.0125182 -0.130125E+02  0.128E+00    0.21       0.0  T
   2    -12.9896207  0.228976E-01  0.183E+00    0.18       1.0  T
   3    -13.0022810 -0.126603E-01  0.135E+00    0.23       1.0  T
   4    -13.0118648 -0.958381E-02  0.462E-01    0.22       1.0  T
   5    -13.0128766 -0.101179E-02  0.321E-01    0.22       1.0  T
   6    -13.0135436 -0.667018E-03  0.170E-01    0.22       1.0  T
   7    -13.0135098  0.338598E-04  0.150E-01    0.22       1.0  T
   8    -13.0134838  0.259761E-04  0.121E-01    0.22       1.0  T
   9    -13.0135792 -0.953996E-04  0.942E-02    0.22       1.0  T
  10    -13.0135739  0.523884E-05  0.807E-02    0.22       1.0  T
  11    -13.0135734  0.531906E-06  0.554E-02    0.22       1.0  T
  12    -13.0135783 -0.489663E-05  0.467E-02    0.22       1.0  T
  13    -13.0135930 -0.146502E-04  0.195E-02    0.22       1.5  T
  14    -13.0135952 -0.228996E-05  0.567E-03    0.22       5.3  T
  15    -13.0135953 -0.101155E-06  0.973E-04    0.22      31.0  T
  16    -13.0135953  0.410440E-09  0.550E-04    0.22      54.9  T
     SCC iter.                  ...        0 min,  0.003 sec
     gradient                   ...        0 min,  0.000 sec
 * total energy  :   -12.6562095 Eh     change       -0.1575252E-02 Eh
   gradient norm :     0.0259906 Eh/α   predicted    -0.2101199E-02 (  33.39%)
   displ. norm   :     0.2035451 α      lambda       -0.2656705E-02
   maximum displ.:     0.0807217 α      in ANC's #15, #9, #5, ...

........................................................................
.............................. CYCLE   29 ..............................
........................................................................
   1    -13.0319151 -0.130319E+02  0.507E-01    0.21       0.0  T
   2    -13.0304381  0.147704E-02  0.421E-01    0.21       1.0  T
   3    -13.0232767  0.716134E-02  0.107E+00    0.19       1.0  T
   4    -13.0297639 -0.648715E-02  0.367E-01    0.21       1.0  T
   5    -13.0320929 -0.232902E-02  0.899E-02    0.21       1.0  T
   6    -13.0321158 -0.228510E-04  0.741E-02    0.21       1.0  T
   7    -13.0321192 -0.345338E-05  0.677E-02    0.21       1.0  T
   8    -13.0321214 -0.212897E-05  0.613E-02    0.21       1.0  T
   9    -13.0321034  0.179800E-04  0.680E-02    0.21       1.0  T
  10    -13.0321197 -0.163416E-04  0.399E-02    0.21       1.0  T
  11    -13.0321260 -0.630401E-05  0.322E-02    0.21       1.0  T
  12    -13.0321240  0.205498E-05  0.331E-02    0.21       1.0  T
  13    -13.0321318 -0.788118E-05  0.221E-03    0.21      13.6  T
  14    -13.0321319 -0.310837E-08  0.181E-03    0.21      16.7  T
  15    -13.0321319 -0.832051E-09  0.422E-04    0.21      71.5  T
  16    -13.0321319 -0.342775E-09  0.133E-04    0.21     226.0  T
     SCC iter.                  ...        0 min,  0.003 sec
     gradient                   ...        0 min,  0.000 sec
 * total energy  :   -12.6575679 Eh     change       -0.1358445E-02 Eh
   gradient norm :     0.0222469 Eh/α   predicted    -0.1383385E-02 (   1.84%)
   displ. norm   :     0.5935131 α      lambda       -0.3080478E-02
   maximum displ.:     0.3236890 α      in ANC's #9, #6, #2, ...

........................................................................
.............................. CYCLE   30 ..............................
........................................................................
   1    -13.0150926 -0.130151E+02  0.134E+00    0.19       0.0  T
   2    -13.0124932  0.259940E-02  0.102E+00    0.21       1.0  T
   3    -12.9633557  0.491376E-01  0.251E+00    0.15       1.0  T
   4    -13.0140727 -0.507171E-01  0.371E-01    0.20       1.0  T
   5    -13.0149254 -0.852629E-03  0.191E-01    0.20       1.0  T
   6    -13.0152483 -0.322976E-03  0.106E-01    0.20       1.0  T
   7    -13.0152567 -0.833964E-05  0.835E-02    0.20       1.0  T
   8    -13.0152592 -0.255589E-05  0.597E-02    0.20       1.0  T
   9    -13.0152731 -0.139106E-04  0.529E-02    0.20       1.0  T
  10    -13.0152755 -0.233710E-05  0.459E-02    0.20       1.0  T
  11    -13.0152808 -0.527639E-05  0.301E-02    0.20       1.0  T
  12    -13.0152811 -0.321456E-06  0.249E-02    0.20       1.2  T
  13    -13.0152830 -0.190541E-05  0.127E-02    0.20       2.4  T
  14    -13.0152841 -0.112612E-05  0.436E-03    0.20       6.9  T
  15    -13.0152841  0.626654E-07  0.423E-03    0.20       7.1  T
  16    -13.0152842 -0.129233E-06  0.125E-03    0.20      24.1  T
  17    -13.0152842 -0.536851E-08  0.541E-04    0.20      55.7  T
  18    -13.0152842 -0.137946E-08  0.155E-04    0.20     194.2  T
     SCC iter.                  ...        0 min,  0.003 sec
     gradient                   ...        0 min,  0.000 sec
 * total energy  :   -12.6584755 Eh     change       -0.9076088E-03 Eh
   gradient norm :     0.0514416 Eh/α   predicted    -0.2082810E-02 ( 129.48%)
   displ. norm   :     0.2638116 α      lambda       -0.2593472E-02
   maximum displ.:     0.1410367 α      in ANC's #4, #6, #2, ...

........................................................................
.............................. CYCLE   31 ..............................
........................................................................
   1    -13.0258039 -0.130258E+02  0.851E-01    0.18       0.0  T
   2    -13.0256542  0.149695E-03  0.541E-01    0.19       1.0  T
   3    -13.0075246  0.181296E-01  0.158E+00    0.15       1.0  T
   4    -13.0255564 -0.180319E-01  0.154E-01    0.18       1.0  T
   5    -13.0258054 -0.249004E-03  0.869E-02    0.18       1.0  T
   6    -13.0258338 -0.283380E-04  0.618E-02    0.18       1.0  T
   7    -13.0258416 -0.783031E-05  0.356E-02    0.18       1.0  T
   8    -13.0258419 -0.257333E-06  0.323E-02    0.18       1.0  T
   9    -13.0258416  0.276676E-06  0.381E-02    0.18       1.0  T
  10    -13.0258408  0.833702E-06  0.382E-02    0.18       1.0  T
  11    -13.0258468 -0.606855E-05  0.167E-02    0.18       1.8  T
  12    -13.0258473 -0.435865E-06  0.110E-02    0.18       2.8  T
  13    -13.0258480 -0.720145E-06  0.263E-03    0.18      11.5  T
  14    -13.0258480 -0.172430E-07  0.174E-03    0.18      17.4  T
  15    -13.0258480 -0.155170E-07  0.637E-04    0.18      47.3  T
  16    -13.0258480 -0.291281E-08  0.141E-04    0.18     213.2  T
     SCC iter.                  ...        0 min,  0.003 sec
     gradient                   ...        0 min,  0.000 sec
 * total energy  :   -12.6599243 Eh     change       -0.1448729E-02 Eh
   gradient norm :     0.0215768 Eh/α   predicted    -0.1386986E-02 (  -4.26%)
   displ. norm   :     0.3826372 α      lambda       -0.1443215E-02
   maximum displ.:     0.1867365 α      in ANC's #9, #3, #10, ...

........................................................................
.............................. CYCLE   32 ..............................
........................................................................
   1    -13.0263064 -0.130263E+02  0.855E-01    0.17       0.0  T
   2    -13.0258841  0.422364E-03  0.513E-01    0.18       1.0  T
[...]
   6    -13.0363497 -0.500413E-05  0.756E-03    0.13       4.0  T
   7    -13.0363500 -0.324164E-06  0.335E-03    0.13       9.0  T
   8    -13.0363500 -0.520509E-08  0.317E-03    0.13       9.5  T
   9    -13.0363500 -0.170781E-07  0.277E-03    0.13      10.9  T
  10    -13.0363500 -0.175250E-07  0.213E-03    0.13      14.2  T
  11    -13.0363500 -0.400753E-08  0.193E-03    0.13      15.6  T
  12    -13.0363500 -0.101841E-07  0.130E-03    0.13      23.1  T
  13    -13.0363501 -0.688170E-08  0.695E-04    0.13      43.4  T
  14    -13.0363500  0.170559E-07  0.173E-03    0.13      17.4  T
  15    -13.0363500 -0.810403E-08  0.124E-03    0.13      24.3  T
  16    -13.0363501 -0.979289E-08  0.940E-05    0.13     320.9  T
     SCC iter.                  ...        0 min,  0.002 sec
     gradient                   ...        0 min,  0.001 sec
 * total energy  :   -12.6637304 Eh     change       -0.3347244E-05 Eh
   gradient norm :     0.0014874 Eh/α   predicted    -0.6794889E-05 ( 103.00%)
   displ. norm   :     0.0262249 α      lambda       -0.5890320E-05
   maximum displ.:     0.0147396 α      in ANC's #13, #14, #8, ...

........................................................................
.............................. CYCLE   72 ..............................
........................................................................
   1    -13.0361004 -0.130361E+02  0.819E-02    0.13       0.0  T
   2    -13.0360995  0.951170E-06  0.529E-02    0.13       1.0  T
   3    -13.0359678  0.131645E-03  0.134E-01    0.13       1.0  T
   4    -13.0360997 -0.131916E-03  0.157E-02    0.13       1.9  T
   5    -13.0360990  0.699446E-06  0.135E-02    0.13       2.2  T
   6    -13.0361004 -0.142115E-05  0.613E-03    0.13       4.9  T
   7    -13.0361006 -0.196701E-06  0.465E-03    0.13       6.5  T
   8    -13.0361007 -0.240799E-07  0.419E-03    0.13       7.2  T
   9    -13.0361007 -0.219185E-07  0.366E-03    0.13       8.2  T
  10    -13.0361007 -0.113958E-08  0.350E-03    0.13       8.6  T
  11    -13.0361007 -0.960155E-08  0.329E-03    0.13       9.2  T
  12    -13.0361007 -0.244710E-07  0.269E-03    0.13      11.2  T
  13    -13.0361006  0.769949E-07  0.440E-03    0.13       6.9  T
  14    -13.0361007 -0.883143E-07  0.179E-03    0.13      16.9  T
  15    -13.0361007 -0.116139E-07  0.106E-03    0.13      28.6  T
  16    -13.0361007  0.937046E-10  0.813E-04    0.13      37.1  T
  17    -13.0361008 -0.518851E-08  0.634E-05    0.13     475.7  T
     SCC iter.                  ...        0 min,  0.002 sec
     gradient                   ...        0 min,  0.000 sec
 * total energy  :   -12.6637356 Eh     change       -0.5243020E-05 Eh
   gradient norm :     0.0003641 Eh/α   predicted    -0.2947528E-05 ( -43.78%)
   displ. norm   :     0.0205668 α      lambda       -0.1843988E-05
   maximum displ.:     0.0159640 α      in ANC's #13, #10, #12, ...

........................................................................
.............................. CYCLE   73 ..............................
........................................................................
   1    -13.0361768 -0.130362E+02  0.307E-02    0.13       0.0  T
   2    -13.0361768  0.153134E-07  0.199E-02    0.13       1.5  T
   3    -13.0361712  0.556248E-05  0.252E-02    0.13       1.2  T
   4    -13.0361765 -0.532909E-05  0.593E-03    0.13       5.1  T
   5    -13.0361768 -0.286974E-06  0.264E-03    0.13      11.4  T
   6    -13.0361768  0.159980E-07  0.183E-03    0.13      16.5  T
   7    -13.0361768 -0.289488E-07  0.111E-03    0.13      27.0  T
   8    -13.0361768 -0.980030E-08  0.865E-04    0.13      34.9  T
   9    -13.0361768  0.546848E-09  0.906E-04    0.13      33.3  T
     SCC iter.                  ...        0 min,  0.002 sec
     gradient                   ...        0 min,  0.001 sec
 * total energy  :   -12.6637373 Eh     change       -0.1737616E-05 Eh
   gradient norm :     0.0004886 Eh/α   predicted    -0.9210225E-06 ( -47.00%)
   displ. norm   :     0.0324047 α      lambda       -0.1623338E-05
   maximum displ.:     0.0257783 α      in ANC's #13, #10, #6, ...

   *** GEOMETRY OPTIMIZATION CONVERGED AFTER 73 ITERATIONS ***

------------------------------------------------------------------------
 total energy gain   :        -0.8440163 Eh     -529.6282 kcal/mol
 total RMSD          :         3.0027739 a0        1.5890 Å
 total power (kW/mol):       -30.3556783 (step)-7250.1481 (real)
------------------------------------------------------------------------

 ANCopt (total)                0 d,  0 h,  0 min,  0.306 sec
 optimizer setup                ...        0 min,  0.000 sec (  0.015%)
 model hessian                  ...        0 min,  0.000 sec (  0.155%)
 ANC generation                 ...        0 min,  0.000 sec (  0.105%)
 coordinate transformation      ...        0 min,  0.000 sec (  0.066%)
 single point calculation       ...        0 min,  0.298 sec ( 97.525%)
 optimization log               ...        0 min,  0.002 sec (  0.669%)
 hessian update                 ...        0 min,  0.002 sec (  0.550%)
 rational function              ...        0 min,  0.002 sec (  0.508%)

================
 final structure:
================
11
 xtb: 6.5.1 (conda-forge)
Be           1.27992863038730        1.25253505309562       -1.43385371831178
B            1.79279518889605        0.80638449091313        0.05566282903065
C            2.23192487689192        0.41751936131283        1.34814424681125
C            2.61828668065350        0.08176362592751        2.48732544440686
C            3.02550305454059       -0.29509417842514        3.69903465735356
C            3.40994513292298       -0.57335937101847        4.82153468976792
H            3.72058635724965       -0.91518637020969        5.76251877281636
H            3.69459671857093        1.82116476909916        5.44910412403634
H            3.80831168330856        2.48624533862817        5.84862072171989
H            2.05565489632531        0.75035822825333        7.43282049911326
H            1.82046678022414        0.35660605242141        8.06158773316177

 Bond Distances (Angstroems)
 ---------------------------
Be1-B2=1.6373        B2-Be1=1.6373        B2-C3=1.4194         C3-B2=1.4194         C3-C4=1.2489         C4-C3=1.2489         
C4-C5=1.3327         C5-C4=1.3327         C5-C6=1.2187         C6-C5=1.2187         C6-H7=1.0482         H7-C6=1.0482         
H8-H9=0.7841         H9-H8=0.7841         H10-H11=0.7783       H11-H10=0.7783       
 H  H  Rav=0.7812 sigma=0.0029  Rmin=0.7783  Rmax=0.7841     2
 B  Be Rav=1.6373 sigma=0.0000  Rmin=1.6373  Rmax=1.6373     1
 C  H  Rav=1.0482 sigma=0.0000  Rmin=1.0482  Rmax=1.0482     1
 C  B  Rav=1.4194 sigma=0.0000  Rmin=1.4194  Rmax=1.4194     1
 C  C  Rav=1.2668 sigma=0.0482  Rmin=1.2187  Rmax=1.3327     3

 selected bond angles (degree)
 --------------------
C3-B2-Be1=179.76               C4-C3-B2=179.69                C5-C4-C3=179.16                C6-C5-C4=176.76                
H7-C6-C5=174.13                

 selected dihedral angles (degree)
 ---------------------------------
C4-C3-B2-Be1=254.17           C5-C4-C3-B2=164.06            C6-C5-C4-C3=184.76            H7-C6-C5-C4=179.70            

 CMA Distance (Angstroems)
 ---------------------------
R(CMA):  4.6335
           -------------------------------------------------
          |                Final Singlepoint                |
           -------------------------------------------------

          ...................................................
          :                      SETUP                      :
          :.................................................:
          :  # basis functions                  29          :
          :  # atomic orbitals                  29          :
          :  # shells                           17          :
          :  # electrons                        26          :
          :  max. iterations                   250          :
          :  Hamiltonian                  GFN2-xTB          :
          :  restarted?                      false          :
          :  GBSA solvation                  false          :
          :  PC potential                    false          :
          :  electronic temp.          300.0000000     K    :
          :  accuracy                    1.0000000          :
          :  -> integral cutoff          0.2500000E+02      :
          :  -> integral neglect         0.1000000E-07      :
          :  -> SCF convergence          0.1000000E-05 Eh   :
          :  -> wf. convergence          0.1000000E-03 e    :
          :  Broyden damping             0.4000000          :
          ...................................................

 iter      E             dE          RMSdq      gap      omega  full diag
   1    -13.0361768 -0.130362E+02  0.917E-04    0.13       0.0  T
   2    -13.0361768  0.164325E-07  0.163E-03    0.13      18.5  T
   3    -13.0361768 -0.165371E-07  0.906E-04    0.13      33.3  T
   4    -13.0361768  0.100265E-08  0.892E-04    0.13      33.8  T

   *** convergence criteria satisfied after 4 iterations ***

         #    Occupation            Energy/Eh            Energy/eV
      -------------------------------------------------------------
         1        2.0000           -0.5570726             -15.1587
       ...           ...                  ...                  ...
         7        2.0000           -0.4151397             -11.2965
         8        2.0000           -0.3967400             -10.7958
         9        2.0000           -0.3942351             -10.7277
        10        2.0000           -0.3524797              -9.5915
        11        2.0000           -0.3369059              -9.1677
        12        2.0000           -0.3363441              -9.1524
        13        1.8542           -0.2460750              -6.6960 (HOMO)
        14        0.1458           -0.2412428              -6.5646 (LUMO)
        15                         -0.1972811              -5.3683
        16                         -0.1629637              -4.4345
        17                         -0.1576508              -4.2899
        18                         -0.0606123              -1.6493
       ...                                ...                  ...
        29                          1.6285846              44.3160
      -------------------------------------------------------------
                  HL-Gap            0.0048322 Eh            0.1315 eV
             Fermi-level           -0.2436589 Eh           -6.6303 eV

 SCC (total)                   0 d,  0 h,  0 min,  0.002 sec
 SCC setup                      ...        0 min,  0.000 sec (  2.438%)
 Dispersion                     ...        0 min,  0.000 sec (  7.179%)
 classical contributions        ...        0 min,  0.000 sec (  2.096%)
 integral evaluation            ...        0 min,  0.000 sec (  7.744%)
 iterations                     ...        0 min,  0.001 sec ( 39.715%)
 molecular gradient             ...        0 min,  0.001 sec ( 38.466%)
 printout                       ...        0 min,  0.000 sec (  1.873%)

         :::::::::::::::::::::::::::::::::::::::::::::::::::::
         ::                     SUMMARY                     ::
         :::::::::::::::::::::::::::::::::::::::::::::::::::::
         :: total energy             -12.663737336331 Eh    ::
         :: gradient norm              0.000489543756 Eh/a0 ::
         :: HOMO-LUMO gap              0.131491873963 eV    ::
         ::.................................................::
         :: SCC energy               -13.036176827758 Eh    ::
         :: -> isotropic ES           -0.010144427133 Eh    ::
         :: -> anisotropic ES          0.023907907927 Eh    ::
         :: -> anisotropic XC          0.012252173787 Eh    ::
         :: -> dispersion             -0.005476745922 Eh    ::
         :: repulsion energy           0.372466704207 Eh    ::
         :: add. restraining           0.000000000000 Eh    ::
         :: total charge               0.000000000000 e     ::
         :::::::::::::::::::::::::::::::::::::::::::::::::::::

           -------------------------------------------------
          |                Property Printout                |
           -------------------------------------------------

    * Orbital Energies and Occupations

         #    Occupation            Energy/Eh            Energy/eV
      -------------------------------------------------------------
         1        2.0000           -0.5570726             -15.1587
         2        2.0000           -0.5400492             -14.6955
         3        2.0000           -0.4988247             -13.5737
         4        2.0000           -0.4511637             -12.2768
         5        2.0000           -0.4454395             -12.1210
         6        2.0000           -0.4351586             -11.8413
         7        2.0000           -0.4151397             -11.2965
         8        2.0000           -0.3967400             -10.7958
         9        2.0000           -0.3942351             -10.7277
        10        2.0000           -0.3524797              -9.5915
        11        2.0000           -0.3369059              -9.1677
        12        2.0000           -0.3363441              -9.1524
        13        1.8542           -0.2460750              -6.6960 (HOMO)
        14        0.1458           -0.2412428              -6.5646 (LUMO)
        15                         -0.1972811              -5.3683
        16                         -0.1629637              -4.4345
        17                         -0.1576508              -4.2899
        18                         -0.0606123              -1.6493
        19                         -0.0555238              -1.5109
        20                          0.0397847               1.0826
        21                          0.0416221               1.1326
        22                          0.1253634               3.4113
        23                          0.1448208               3.9408
        24                          0.1615467               4.3959
       ...                                ...                  ...
        29                          1.6285846              44.3160
      -------------------------------------------------------------
                  HL-Gap            0.0048322 Eh            0.1315 eV
             Fermi-level           -0.2436589 Eh           -6.6303 eV

     #   Z          covCN         q      C6AA      α(0)
     1   4 Be       0.912     0.362    67.234    24.593
     2   5 B        1.819    -0.053    46.632    14.386
     3   6 C        1.889    -0.127    34.670     9.510
     4   6 C        1.964    -0.054    32.522     9.209
     5   6 C        1.963    -0.022    31.665     9.087
     6   6 C        1.911    -0.130    34.748     9.520
     7   1 H        0.928     0.034     2.528     2.486
     8   1 H        0.790     0.016     2.853     2.656
     9   1 H        0.790    -0.025     3.613     2.989
    10   1 H        0.809     0.009     2.958     2.701
    11   1 H        0.809    -0.010     3.292     2.849

 Mol. C6AA /au·bohr⁶  :       2078.195533
 Mol. C8AA /au·bohr⁸  :      59849.843717
 Mol. α(0) /au        :         89.986125


Wiberg/Mayer (AO) data.
largest (>0.10) Wiberg bond orders for each atom

 ---------------------------------------------------------------------------
     #   Z sym  total        # sym  WBO       # sym  WBO       # sym  WBO
 ---------------------------------------------------------------------------
     1   4 Be   1.720 --     2 B    1.519     4 C    0.111
     2   5 B    3.219 --     1 Be   1.519     3 C    1.471     4 C    0.119
     3   6 C    3.946 --     4 C    2.195     2 B    1.471     6 C    0.180
     4   6 C    3.834 --     3 C    2.195     5 C    1.358     2 B    0.119
                             1 Be   0.111
     5   6 C    3.965 --     6 C    2.542     4 C    1.358
     6   6 C    3.821 --     5 C    2.542     7 H    0.976     3 C    0.180
     7   1 H    0.998 --     6 C    0.976
     8   1 H    1.000 --     9 H    0.986
     9   1 H    0.998 --     8 H    0.986
    10   1 H    1.000 --    11 H    0.998
    11   1 H    1.000 --    10 H    0.998
 ---------------------------------------------------------------------------

Topologies differ in total number of bonds
Writing topology from bond orders to xtbtopo.mol

molecular dipole:
                 x           y           z       tot (Debye)
 q only:       -0.899       0.705      -2.671
   full:       -1.209       0.950      -3.557       9.851
molecular quadrupole (traceless):
                xx          xy          yy          xz          yz          zz
 q only:       -3.147       2.188       9.479     -17.691      -3.845      -6.332
  q+dip:      -13.237       0.509       4.306     -14.190     -13.348       8.931
   full:       -8.398       0.602       4.593     -17.809     -11.311       3.805

           -------------------------------------------------
          |                Geometry Summary                 |
           -------------------------------------------------

      molecular mass/u    :       72.9058585
   center of mass at/Å    :        2.4920566       0.2757917       2.3166577
  moments of inertia/u·Å² :        0.2889372E+02   0.4367246E+03   0.4511636E+03
rotational constants/cm⁻¹ :        0.5834359E+00   0.3860015E-01   0.3736479E-01

 * 7 selected distances

     #   Z          #   Z                                           value/Å
     1   4 Be       2   5 B                                       1.6372973 (max)
     2   5 B        3   6 C                                       1.4193518
     3   6 C        4   6 C                                       1.2488961
     5   6 C        6   6 C                                       1.2187017
     6   6 C        7   1 H                                       1.0482342
     8   1 H        9   1 H                                       0.7841409
    10   1 H       11   1 H                                       0.7782690 (min)

 * 5 distinct bonds (by element types)

   Z      Z             #   av. dist./Å        max./Å        min./Å
   1 H    1 H           2     0.7812049     0.7841409     0.7782690
   4 Be   5 B           1     1.6372973     1.6372973     1.6372973
   1 H    6 C           1     1.0482342     1.0482342     1.0482342
   5 B    6 C           1     1.4193518     1.4193518     1.4193518
Note: The following floating-point exceptions are signalling: IEEE_UNDERFLOW_FLAG
normal termination of xtb
   6 C    6 C           2     1.2337989     1.2488961     1.2187017


optimized geometry written to: xtbopt.xyz


           -------------------------------------------------
          | TOTAL ENERGY              -12.663737336331 Eh   |
          | GRADIENT NORM               0.000489543756 Eh/α |
          | HOMO-LUMO GAP               0.131491873963 eV   |
           -------------------------------------------------
########################################################################
[WARNING] Runtime exception occurred
-3- restart_readRestart: Dimension missmatch in restart file.
-2- restart_readRestart: Multiplicity missmatch in restart file.
-1- restart_readRestart: Number of electron missmatch in restart file.
########################################################################

------------------------------------------------------------------------
 * finished run on 2025/06/07 at 03:27:50.562     
------------------------------------------------------------------------
 total:
 * wall-time:     0 d,  0 h,  0 min,  0.371 sec
 *  cpu-time:     0 d,  0 h,  0 min,  5.115 sec
 * ratio c/w:    13.797 speedup
 SCF:
 * wall-time:     0 d,  0 h,  0 min,  0.060 sec
 *  cpu-time:     0 d,  0 h,  0 min,  0.781 sec
 * ratio c/w:    13.073 speedup
 ANC optimizer:
 * wall-time:     0 d,  0 h,  0 min,  0.308 sec
 *  cpu-time:     0 d,  0 h,  0 min,  4.298 sec
 * ratio c/w:    13.969 speedup

