      -----------------------------------------------------------      
     |                   =====================                   |     
     |                           x T B                           |     
     |                   =====================                   |     
     |                         S. Grimme                         |     
     |          Mulliken Center for Theoretical Chemistry        |     
     |                    University of Bonn                     |     
      -----------------------------------------------------------      

   * xtb version 6.5.1 (conda-forge) compiled by 'runner@Mac-1657629245115.local' on 2022-07-12

   xtb is free software: you can redistribute it and/or modify it under
   the terms of the GNU Lesser General Public License as published by
   the Free Software Foundation, either version 3 of the License, or
   (at your option) any later version.
   
   xtb is distributed in the hope that it will be useful,
   but WITHOUT ANY WARRANTY; without even the implied warranty of
   MERCHANTABILITY or FITNESS FOR A PARTICULAR PURPOSE.  See the
   GNU Lesser General Public License for more details.
   
   Cite this work as:
   * C. Bannwarth, E. Caldeweyher, S. Ehlert, A. Hansen, P. Pracht,
     J. Seibert, S. Spicher, S. Grimme, WIREs Comput. Mol. Sci., 2020, 11,
     e01493. DOI: 10.1002/wcms.1493
   
   for GFN2-xTB:
   * C. Bannwarth, S. Ehlert and S. Grimme., J. Chem. Theory Comput., 2019,
     15, 1652-1671. DOI: 10.1021/acs.jctc.8b01176
   for GFN1-xTB:
   * S. Grimme, C. Bannwarth, P. Shushkov, J. Chem. Theory Comput., 2017,
     13, 1989-2009. DOI: 10.1021/acs.jctc.7b00118
   for GFN0-xTB:
   * P. Pracht, E. Caldeweyher, S. Ehlert, S. Grimme, ChemRxiv, 2019, preprint.
     DOI: 10.26434/chemrxiv.8326202.v1
   for GFN-FF:
   * S. Spicher and S. Grimme, Angew. Chem. Int. Ed., 2020, 59, 15665-15673.
     DOI: 10.1002/anie.202004239
   
   for ALPB and GBSA implicit solvation:
   * S. Ehlert, M. Stahn, S. Spicher, S. Grimme, J. Chem. Theory Comput.,
     2021, 17, 4250-4261. DOI: 10.1021/acs.jctc.1c00471
   
   for DFT-D4:
   * E. Caldeweyher, C. Bannwarth and S. Grimme, J. Chem. Phys., 2017,
     147, 034112. DOI: 10.1063/1.4993215
   * E. Caldeweyher, S. Ehlert, A. Hansen, H. Neugebauer, S. Spicher,
     C. Bannwarth and S. Grimme, J. Chem. Phys., 2019, 150, 154122.
     DOI: 10.1063/1.5090222
   * E. Caldeweyher, J.-M. Mewes, S. Ehlert and S. Grimme, Phys. Chem. Chem. Phys.
     2020, 22, 8499-8512. DOI: 10.1039/D0CP00502A
   
   for sTDA-xTB:
   * S. Grimme and C. Bannwarth, J. Chem. Phys., 2016, 145, 054103.
     DOI: 10.1063/1.4959605
   
   in the mass-spec context:
   * V. Asgeirsson, C. Bauer and S. Grimme, Chem. Sci., 2017, 8, 4879.
     DOI: 10.1039/c7sc00601b
   * J. Koopman and S. Grimme, ACS Omega 2019, 4, 12, 15120-15133.
     DOI: 10.1021/acsomega.9b02011
   
   for metadynamics refer to:
   * S. Grimme, J. Chem. Theory Comput., 2019, 155, 2847-2862
     DOI: 10.1021/acs.jctc.9b00143
   
   for SPH calculations refer to:
   * S. Spicher and S. Grimme, J. Chem. Theory Comput., 2021, 17, 1701-1714
     DOI: 10.1021/acs.jctc.0c01306
   
   with help from (in alphabetical order)
   P. Atkinson, C. Bannwarth, F. Bohle, G. Brandenburg, E. Caldeweyher
   M. Checinski, S. Dohm, S. Ehlert, S. Ehrlich, I. Gerasimov, C. Hölzer
   A. Katbashev, J. Koopman, C. Lavigne, S. Lehtola, F. März, M. Müller,
   F. Musil, H. Neugebauer, J. Pisarek, C. Plett, P. Pracht, F. Pultar,
   J. Seibert, P. Shushkov, S. Spicher, M. Stahn, M. Steiner, T. Strunk,
   J. Stückrath, T. Rose, and J. Unsleber
   
 * started run on 2025/06/07 at 03:27:47.669     

           -------------------------------------------------
          |                Calculation Setup                |
           -------------------------------------------------

          program call               : xtb BBeC2H4.xyz --gfn 2 --opt
          coordinate file            : BBeC2H4.xyz
          omp threads                :                    16

   ID    Z sym.   atoms
    1    4 Be     1
    2    5 B      2
    3    6 C      3, 4
    4    1 H      5-8

molecular fragmentation (1/2 indicates fragments):
12222222
# atoms in fragment 1/2:     1     7
 fragment masses (1/2) :        9.01       38.86
CMA distance (Bohr)    :   6.680
constraining FC (au)   :  0.0500

           -------------------------------------------------
          |                 G F N 2 - x T B                 |
           -------------------------------------------------

        Reference                      10.1021/acs.jctc.8b01176
      * Hamiltonian:
        H0-scaling (s, p, d)           1.850000    2.230000    2.230000
        zeta-weighting                 0.500000
      * Dispersion:
        s8                             2.700000
        a1                             0.520000
        a2                             5.000000
        s9                             5.000000
      * Repulsion:
        kExp                           1.500000    1.000000
        rExp                           1.000000
      * Coulomb:
        alpha                          2.000000
        third order                    shell-resolved
        anisotropic                    true
        a3                             3.000000
        a5                             4.000000
        cn-shift                       1.200000
        cn-exp                         4.000000
        max-rad                        5.000000


          ...................................................
          :                      SETUP                      :
          :.................................................:
          :  # basis functions                  20          :
          :  # atomic orbitals                  20          :
          :  # shells                           12          :
          :  # electrons                        17          :
          :  max. iterations                   250          :
          :  Hamiltonian                  GFN2-xTB          :
          :  restarted?                      false          :
          :  GBSA solvation                  false          :
          :  PC potential                    false          :
          :  electronic temp.          300.0000000     K    :
          :  accuracy                    1.0000000          :
          :  -> integral cutoff          0.2500000E+02      :
          :  -> integral neglect         0.1000000E-07      :
          :  -> SCF convergence          0.1000000E-05 Eh   :
          :  -> wf. convergence          0.1000000E-03 e    :
          :  Broyden damping             0.4000000          :
          ...................................................

 iter      E             dE          RMSdq      gap      omega  full diag
   1     15.8832081  0.158832E+02  0.254E+01    0.33       0.0  T
   2     -4.1017391 -0.199849E+02  0.189E+01    1.89       1.0  T
   3     -4.3470734 -0.245334E+00  0.159E+01    0.84       1.0  T
   4     -4.9003560 -0.553283E+00  0.113E+01    0.51       1.0  T
   5     -4.8125332  0.878228E-01  0.124E+01    0.70       1.0  T
   6     -5.4951833 -0.682650E+00  0.101E+01    0.69       1.0  T
   7     -5.9883979 -0.493215E+00  0.970E+00    0.52       1.0  T
   8     -7.1568811 -0.116848E+01  0.139E+01    0.75       1.0  T
   9     -5.9558456  0.120104E+01  0.104E+01    0.54       1.0  T
  10     -6.0984896 -0.142644E+00  0.105E+01    0.52       1.0  T
  11     -7.2738652 -0.117538E+01  0.116E+01    0.77       1.0  T
  12     18.0472935  0.253212E+02  0.357E+01    0.31       1.0  T
  13     17.0673328 -0.979961E+00  0.274E+01    0.37       1.0  T
  14     -6.0960862 -0.231634E+02  0.683E+00    0.41       1.0  T
  15     -6.4130846 -0.316998E+00  0.698E+00    0.37       1.0  T
  16     -6.3988370  0.142475E-01  0.674E+00    0.35       1.0  T
  17     13.7421992  0.201410E+02  0.241E+01    0.42       1.0  T
  18     15.5803540  0.183815E+01  0.266E+01    0.42       1.0  T
  19     14.2809137 -0.129944E+01  0.240E+01    0.42       1.0  T
  20     -6.6615414 -0.209425E+02  0.138E+01    0.85       1.0  T
  21     -6.5258546  0.135687E+00  0.143E+01    0.78       1.0  T
  22     -6.5748560 -0.490014E-01  0.142E+01    0.81       1.0  T
  23     -7.4596772 -0.884821E+00  0.801E+00    0.30       1.0  T
  24      0.0638009  0.752348E+01  0.144E+01    0.29       1.0  T
  25      0.1337889  0.699880E-01  0.144E+01    0.29       1.0  T
  26     -0.5395445 -0.673333E+00  0.145E+01    0.27       1.0  T
  27     -1.6870357 -0.114749E+01  0.148E+01    0.23       1.0  T
  28     -4.6109140 -0.292388E+01  0.163E+01    0.24       1.0  T
  29     -3.6502849  0.960629E+00  0.160E+01    0.20       1.0  T
  30     -6.5052630 -0.285498E+01  0.151E+01    0.72       1.0  T
  31     -6.6866305 -0.181368E+00  0.146E+01    0.83       1.0  T
  32     -6.4140104  0.272620E+00  0.156E+01    0.65       1.0  T
  33     -6.3066466  0.107364E+00  0.155E+01    0.61       1.0  T
  34     -7.4684046 -0.116176E+01  0.784E+00    0.29       1.0  T
  35     -7.4372296  0.311750E-01  0.893E+00    0.47       1.0  T
  36     -6.0739189  0.136331E+01  0.172E+01    0.42       1.0  T
  37     -6.2657051 -0.191786E+00  0.171E+01    0.49       1.0  T
  38     -6.0234468  0.242258E+00  0.175E+01    0.41       1.0  T
  39     -6.3026414 -0.279195E+00  0.160E+01    0.53       1.0  T
  40     -7.3781287 -0.107549E+01  0.850E+00    0.45       1.0  T
  41     -6.7074438  0.670685E+00  0.141E+01    0.73       1.0  T
  42     -7.4116359 -0.704192E+00  0.799E+00    0.35       1.0  T
  43     -7.1381813  0.273455E+00  0.110E+01    0.58       1.0  T
  44     -7.0824732  0.557082E-01  0.116E+01    0.58       1.0  T
  45     -7.2986777 -0.216204E+00  0.974E+00    0.43       1.0  T
  46     -7.2394263  0.592513E-01  0.104E+01    0.46       1.0  T
  47     -7.1280581  0.111368E+00  0.116E+01    0.52       1.0  T
  48     -7.0817033  0.463548E-01  0.119E+01    0.55       1.0  T
  49     -7.0705659  0.111374E-01  0.115E+01    0.56       1.0  T
  50     -7.0247843  0.457816E-01  0.960E+00    0.22       1.0  T
  51     -7.0294588 -0.467450E-02  0.978E+00    0.20       1.0  T
  52     -7.2566332 -0.227174E+00  0.889E+00    0.05       1.0  T
  53     -6.9370843  0.319549E+00  0.107E+01    0.34       1.0  T
  54     -6.9451908 -0.810646E-02  0.108E+01    0.33       1.0  T
  55     -6.8409165  0.104274E+00  0.102E+01    0.43       1.0  T
  56     -6.8866356 -0.457191E-01  0.933E+00    0.40       1.0  T
  57     -6.9861566 -0.995211E-01  0.646E+00    0.31       1.0  T
  58     -7.0899079 -0.103751E+00  0.541E+00    0.24       1.0  T
  59     -7.1130859 -0.231779E-01  0.534E+00    0.22       1.0  T
  60     -7.1231059 -0.100200E-01  0.526E+00    0.21       1.0  T
  61     -7.1439949 -0.208890E-01  0.499E+00    0.19       1.0  T
  62     -6.9966557  0.147339E+00  0.515E+00    0.28       1.0  T
  63     -7.0676415 -0.709858E-01  0.459E+00    0.23       1.0  T
  64     -6.9893330  0.783085E-01  0.459E+00    0.25       1.0  T
  65     -7.0865279 -0.971949E-01  0.422E+00    0.21       1.0  T
  66     -7.0714022  0.151256E-01  0.418E+00    0.21       1.0  T
  67     -7.3515070 -0.280105E+00  0.392E+00    0.15       1.0  T
  68     -7.0993649  0.252142E+00  0.392E+00    0.20       1.0  T
  69     -7.3814138 -0.282049E+00  0.386E+00    0.15       1.0  T
  70     -7.2630021  0.118412E+00  0.345E+00    0.15       1.0  T
  71     -7.4241324 -0.161130E+00  0.400E+00    0.16       1.0  T
  72     -7.4027788  0.213536E-01  0.368E+00    0.14       1.0  T
  73     -7.4404790 -0.377002E-01  0.390E+00    0.16       1.0  T
  74     -7.4569731 -0.164940E-01  0.414E+00    0.17       1.0  T
  75     -7.4589099 -0.193679E-02  0.414E+00    0.17       1.0  T
  76     -7.4587956  0.114207E-03  0.408E+00    0.17       1.0  T
  77     -7.4604442 -0.164857E-02  0.410E+00    0.17       1.0  T
  78     -7.4607169 -0.272728E-03  0.410E+00    0.18       1.0  T
  79     -7.4504944  0.102226E-01  0.376E+00    0.16       1.0  T
  80     -7.4539161 -0.342170E-02  0.372E+00    0.17       1.0  T
  81     -7.4545780 -0.661984E-03  0.361E+00    0.17       1.0  T
  82     -7.4590277 -0.444966E-02  0.362E+00    0.17       1.0  T
  83     -7.4580764  0.951281E-03  0.359E+00    0.17       1.0  T
  84     -7.4585033 -0.426931E-03  0.360E+00    0.17       1.0  T
  85     -7.4630349 -0.453152E-02  0.368E+00    0.18       1.0  T
  86     -7.4639858 -0.950896E-03  0.368E+00    0.18       1.0  T
  87     -7.4668910 -0.290522E-02  0.368E+00    0.19       1.0  T
  88     -7.4669933 -0.102312E-03  0.362E+00    0.19       1.0  T
  89     -7.4681259 -0.113261E-02  0.355E+00    0.19       1.0  T
  90     -7.4709528 -0.282688E-02  0.335E+00    0.19       1.0  T
  91     -7.4739859 -0.303311E-02  0.313E+00    0.21       1.0  T
  92     -7.4748150 -0.829106E-03  0.286E+00    0.21       1.0  T
  93     -7.4760772 -0.126224E-02  0.278E+00    0.22       1.0  T
  94     -7.4754462  0.631081E-03  0.263E+00    0.22       1.0  T
  95     -7.4765068 -0.106065E-02  0.283E+00    0.25       1.0  T
  96     -7.4765612 -0.543918E-04  0.284E+00    0.25       1.0  T
  97     -7.4764730  0.882205E-04  0.300E+00    0.26       1.0  T
  98     -7.4764148  0.582169E-04  0.302E+00    0.26       1.0  T
  99     -7.4766294 -0.214624E-03  0.294E+00    0.26       1.0  T
 100     -7.4768112 -0.181825E-03  0.285E+00    0.25       1.0  T
 101     -7.4768883 -0.770495E-04  0.277E+00    0.24       1.0  T
 102     -7.4769082 -0.199317E-04  0.273E+00    0.24       1.0  T
 103     -7.4769098 -0.163998E-05  0.275E+00    0.24       1.0  T
 104     -7.4769477 -0.379019E-04  0.281E+00    0.25       1.0  T
 105     -7.4768757  0.720347E-04  0.287E+00    0.27       1.0  T
 106     -7.4766171  0.258627E-03  0.290E+00    0.28       1.0  T
 107     -7.4765184  0.986992E-04  0.291E+00    0.28       1.0  T
 108     -7.4768777 -0.359362E-03  0.285E+00    0.28       1.0  T
 109     -7.4774841 -0.606415E-03  0.264E+00    0.26       1.0  T
 110     -7.4777914 -0.307236E-03  0.242E+00    0.25       1.0  T
 111     -7.4783478 -0.556456E-03  0.216E+00    0.25       1.0  T
 112     -7.4782496  0.982205E-04  0.166E+00    0.23       1.0  T
 113     -7.4768633  0.138630E-02  0.123E+00    0.22       1.0  T
 114     -7.4746113  0.225204E-02  0.934E-01    0.21       1.0  T
 115     -7.4766300 -0.201872E-02  0.807E-01    0.21       1.0  T
 116     -7.4724328  0.419719E-02  0.855E-01    0.20       1.0  T
 117     -7.4767602 -0.432734E-02  0.110E+00    0.28       1.0  T
 118     -7.4795013 -0.274117E-02  0.793E-01    0.24       1.0  T
 119     -7.4763796  0.312170E-02  0.102E+00    0.28       1.0  T
 120     -7.4770803 -0.700638E-03  0.956E-01    0.27       1.0  T
 121     -7.4747271  0.235313E-02  0.108E+00    0.29       1.0  T
 122     -7.4743974  0.329731E-03  0.109E+00    0.29       1.0  T
 123     -7.4742714  0.126029E-03  0.110E+00    0.30       1.0  T
 124     -7.4745956 -0.324235E-03  0.108E+00    0.29       1.0  T
 125     -7.4747949 -0.199287E-03  0.106E+00    0.29       1.0  T
 126     -7.4747897  0.521511E-05  0.105E+00    0.29       1.0  T
 127     -7.4748547 -0.649979E-04  0.109E+00    0.29       1.0  T
 128     -7.4755356 -0.680931E-03  0.111E+00    0.29       1.0  T
 129     -7.4775774 -0.204182E-02  0.109E+00    0.27       1.0  T
 130     -7.4792883 -0.171085E-02  0.104E+00    0.24       1.0  T
 131     -7.4794835 -0.195188E-03  0.116E+00    0.23       1.0  T
 132     -7.4795117 -0.282365E-04  0.126E+00    0.22       1.0  T
 133     -7.4795139 -0.217891E-05  0.131E+00    0.22       1.0  T
 134     -7.4795145 -0.626996E-06  0.131E+00    0.22       1.0  T
 135     -7.4795161 -0.155404E-05  0.127E+00    0.23       1.0  T
 136     -7.4795069  0.916305E-05  0.122E+00    0.23       1.0  T
 137     -7.4794790  0.279083E-04  0.115E+00    0.23       1.0  T
 138     -7.4794237  0.552747E-04  0.107E+00    0.24       1.0  T
 139     -7.4793270  0.967030E-04  0.989E-01    0.24       1.0  T
 140     -7.4791898  0.137210E-03  0.900E-01    0.25       1.0  T
 141     -7.4790262  0.163645E-03  0.802E-01    0.25       1.0  T
 142     -7.4788598  0.166341E-03  0.689E-01    0.26       1.0  T
 143     -7.4787446  0.115221E-03  0.557E-01    0.27       1.0  T
 144     -7.4787729 -0.282915E-04  0.413E-01    0.27       1.0  T
 145     -7.4790174 -0.244477E-03  0.282E-01    0.27       1.0  T
 146     -7.4793977 -0.380368E-03  0.187E-01    0.27       1.0  T
 147     -7.4797318 -0.334100E-03  0.128E-01    0.26       1.0  T
 148     -7.4799293 -0.197463E-03  0.890E-02    0.26       1.0  T
 149     -7.4800144 -0.851071E-04  0.579E-02    0.25       1.0  T
 150     -7.4800338 -0.194383E-04  0.340E-02    0.25       1.0  T
 151     -7.4800348 -0.991985E-06  0.180E-02    0.24       2.0  T
 152     -7.4800352 -0.411482E-06  0.639E-03    0.24       5.5  T
 153     -7.4800353 -0.101084E-06  0.247E-03    0.24      14.3  T
 154     -7.4800353  0.159150E-07  0.231E-03    0.24      15.3  T
 155     -7.4800354 -0.395138E-07  0.106E-03    0.24      33.4  T
 156     -7.4800354  0.124799E-08  0.605E-04    0.24      58.5  T
 157     -7.4800354 -0.719434E-08  0.307E-04    0.24     115.2  T

   *** convergence criteria satisfied after 157 iterations ***

         #    Occupation            Energy/Eh            Energy/eV
      -------------------------------------------------------------
         1        2.0000           -0.6052919             -16.4708
       ...           ...                  ...                  ...
         3        2.0000           -0.4584669             -12.4755
         4        2.0000           -0.3688425             -10.0367
         5        2.0000           -0.3268843              -8.8950
         6        2.0000           -0.3060093              -8.3269
         7        2.0000           -0.2979140              -8.1067
         8        2.0000           -0.2541676              -6.9163
         9        0.9912           -0.2317162              -6.3053 (HOMO)
        10        0.0088           -0.2227432              -6.0612 (LUMO)
        11                         -0.2099321              -5.7125
        12                         -0.1681303              -4.5751
        13                         -0.1449230              -3.9436
        14                         -0.1156089              -3.1459
       ...                                ...                  ...
        20                          0.5117575              13.9256
      -------------------------------------------------------------
                  HL-Gap            0.0089730 Eh            0.2442 eV
             Fermi-level           -0.2350858 Eh           -6.3970 eV

 SCC (total)                   0 d,  0 h,  0 min,  0.053 sec
 SCC setup                      ...        0 min,  0.000 sec (  0.141%)
 Dispersion                     ...        0 min,  0.000 sec (  0.188%)
 classical contributions        ...        0 min,  0.000 sec (  0.173%)
 integral evaluation            ...        0 min,  0.000 sec (  0.205%)
 iterations                     ...        0 min,  0.052 sec ( 98.520%)
 molecular gradient             ...        0 min,  0.000 sec (  0.693%)
 printout                       ...        0 min,  0.000 sec (  0.063%)

         :::::::::::::::::::::::::::::::::::::::::::::::::::::
         ::                     SUMMARY                     ::
         :::::::::::::::::::::::::::::::::::::::::::::::::::::
         :: total energy              -7.421053002231 Eh    ::
         :: gradient norm              0.299604491849 Eh/a0 ::
         :: HOMO-LUMO gap              0.244169027394 eV    ::
         ::.................................................::
         :: SCC energy                -7.480035370562 Eh    ::
         :: -> isotropic ES           -0.014030896413 Eh    ::
         :: -> anisotropic ES          0.003184202686 Eh    ::
         :: -> anisotropic XC         -0.003665967518 Eh    ::
         :: -> dispersion             -0.004873922223 Eh    ::
         :: repulsion energy           0.058979804913 Eh    ::
         :: add. restraining           0.000000000000 Eh    ::
         :: total charge              -0.000000000583 e     ::
         :::::::::::::::::::::::::::::::::::::::::::::::::::::

      ----------------------------------------------------------- 
     |                   =====================                   |
     |                        A N C O P T                        |
     |                   =====================                   |
     |               Approximate Normal Coordinate               |
     |                Rational Function Optimizer                |
      ----------------------------------------------------------- 

          ...................................................
          :                      SETUP                      :
          :.................................................:
          :   optimization level            normal          :
          :   max. optcycles                   200          :
          :   ANC micro-cycles                  20          :
          :   degrees of freedom                18          :
          :.................................................:
          :   RF solver                   davidson          :
          :   write xtbopt.log                true          :
          :   linear?                        false          :
          :   energy convergence         0.5000000E-05 Eh   :
          :   grad. convergence          0.1000000E-02 Eh/α :
          :   maximium RF displ.         1.0000000          :
          :   Hlow (freq-cutoff)         0.1000000E-01      :
          :   Hmax (freq-cutoff)         5.0000000          :
          :   S6 in model hess.         20.0000000          :
          ...................................................

generating ANC from model Hessian ...
Using Lindh-Hessian (1995)
 Shifting diagonal of input Hessian by    9.3844258075293837E-003
 Lowest  eigenvalues of input Hessian
    0.000000    0.000000    0.000000    0.000000    0.000000    0.000000
    0.010000    0.010249    0.012102    0.013191    0.020794    0.028053
    0.031204    0.035965    0.055173    0.073108    0.117470    0.187212
 Highest eigenvalues
    0.203668    0.250601    0.285250    0.311857    0.387294    0.522465


........................................................................
.............................. CYCLE    1 ..............................
........................................................................
   1     -7.4800354 -0.748004E+01  0.117E-04    0.24       0.0  T
   2     -7.4800354  0.640730E-08  0.747E-04    0.24      47.4  T
   3     -7.4800354 -0.507840E-08  0.373E-04    0.24      94.8  T
     SCC iter.                  ...        0 min,  0.000 sec
     gradient                   ...        0 min,  0.001 sec
 * total energy  :    -7.4210530 Eh     change        0.1159622E-08 Eh
   gradient norm :     0.2989588 Eh/α   predicted     0.0000000E+00 (-100.00%)
   displ. norm   :     0.7749972 α      lambda       -0.2111267E+00
   maximum displ.:     0.3007872 α      in ANC's #14, #5, #10, ...

........................................................................
.............................. CYCLE    2 ..............................
........................................................................
   1     -7.3858887 -0.738589E+01  0.592E+00    0.59       0.0  T
   2     12.3057835  0.196917E+02  0.233E+01    0.57       1.0  T
   3     -7.2602016 -0.195660E+02  0.612E+00    1.23       1.0  T
   4     -7.4206921 -0.160491E+00  0.435E+00    0.27       1.0  T
   5     -7.3085413  0.112151E+00  0.423E+00    0.73       1.0  T
   6     -7.5564677 -0.247926E+00  0.190E+00    0.40       1.0  T
   7     -7.5070556  0.494122E-01  0.237E+00    0.46       1.0  T
   8     -7.5344980 -0.274424E-01  0.169E+00    0.44       1.0  T
   9     -7.5790221 -0.445241E-01  0.945E-01    0.39       1.0  T
  10     -7.6146891 -0.356670E-01  0.174E+00    0.38       1.0  T
  11     -7.6146228  0.662831E-04  0.152E+00    0.37       1.0  T
  12     -7.6129078  0.171501E-02  0.921E-01    0.37       1.0  T
  13     -7.6131691 -0.261328E-03  0.828E-01    0.37       1.0  T
  14     -7.6140386 -0.869544E-03  0.687E-01    0.37       1.0  T
  15     -7.6149213 -0.882646E-03  0.658E-01    0.37       1.0  T
  16     -7.6155279 -0.606642E-03  0.500E-01    0.36       1.0  T
  17     -7.6156818 -0.153900E-03  0.420E-01    0.36       1.0  T
  18     -7.6159302 -0.248330E-03  0.285E-01    0.36       1.0  T
  19     -7.6161074 -0.177247E-03  0.909E-02    0.36       1.0  T
  20     -7.6161055  0.190796E-05  0.178E-02    0.36       2.0  T
  21     -7.6161037  0.179798E-05  0.490E-02    0.36       1.0  T
  22     -7.6161138 -0.101009E-04  0.797E-03    0.36       4.4  T
  23     -7.6161138 -0.206048E-07  0.108E-03    0.36      32.8  T
  24     -7.6161134  0.411026E-06  0.667E-03    0.36       5.3  T
  25     -7.6161136 -0.204158E-06  0.692E-03    0.36       5.1  T
  26     -7.6161138 -0.189242E-06  0.378E-03    0.36       9.4  T
  27     -7.6161138 -0.239635E-07  0.156E-03    0.36      22.6  T
  28     -7.6161138 -0.581462E-08  0.532E-04    0.36      66.4  T
  29     -7.6161138 -0.145309E-09  0.216E-04    0.36     163.6  T
     SCC iter.                  ...        0 min,  0.003 sec
     gradient                   ...        0 min,  0.000 sec
 * total energy  :    -7.5713707 Eh     change       -0.1503177E+00 Eh
   gradient norm :     0.1904212 Eh/α   predicted    -0.1689669E+00 (  12.41%)
   displ. norm   :     0.7595518 α      lambda       -0.1350426E+00
   maximum displ.:     0.3828120 α      in ANC's #18, #6, #17, ...

........................................................................
.............................. CYCLE    3 ..............................
........................................................................
   1     -7.6773587 -0.767736E+01  0.401E+00    0.02       0.0  T
   2     -7.2310290  0.446330E+00  0.670E+00    0.61       1.0  T
   3     -6.6639462  0.567083E+00  0.109E+01    0.75       1.0  T
   4     -7.6997612 -0.103582E+01  0.299E+00    0.25       1.0  T
   5     -7.7568884 -0.571271E-01  0.164E+00    0.29       1.0  T
   6     -7.7673808 -0.104924E-01  0.852E-01    0.23       1.0  T
   7     -7.7259606  0.414202E-01  0.226E+00    0.33       1.0  T
   8     -7.7370658 -0.111053E-01  0.199E+00    0.33       1.0  T
   9     -7.7504470 -0.133811E-01  0.155E+00    0.30       1.0  T
  10     -7.7590845 -0.863752E-02  0.123E+00    0.21       1.0  T
  11     -7.7696755 -0.105910E-01  0.374E-01    0.22       1.0  T
  12     -7.7709876 -0.131216E-02  0.945E-02    0.23       1.0  T
  13     -7.7706242  0.363365E-03  0.260E-01    0.23       1.0  T
  14     -7.7709183 -0.294044E-03  0.128E-01    0.23       1.0  T
  15     -7.7710202 -0.101915E-03  0.281E-02    0.23       1.3  T
  16     -7.7710038  0.163805E-04  0.475E-02    0.23       1.0  T
  17     -7.7710117 -0.788959E-05  0.382E-02    0.23       1.0  T
  18     -7.7710200 -0.831468E-05  0.157E-02    0.23       2.3  T
  19     -7.7710214 -0.138057E-05  0.362E-03    0.23       9.8  T
  20     -7.7710215 -0.725579E-07  0.332E-04    0.23     106.4  T
  21     -7.7710215  0.829237E-09  0.449E-04    0.23      78.8  T
     SCC iter.                  ...        0 min,  0.003 sec
     gradient                   ...        0 min,  0.001 sec
 * total energy  :    -7.6589281 Eh     change       -0.8755740E-01 Eh
   gradient norm :     0.1841984 Eh/α   predicted    -0.1064756E+00 (  21.61%)
   displ. norm   :     0.6945163 α      lambda       -0.8794346E-01
   maximum displ.:     0.3852794 α      in ANC's #6, #9, #13, ...

........................................................................
.............................. CYCLE    4 ..............................
........................................................................
   1     -7.7670364 -0.776704E+01  0.363E+00    0.32       0.0  T
   2      1.6317012  0.939874E+01  0.155E+01    0.88       1.0  T
   3     -7.7157245 -0.934743E+01  0.308E+00    0.41       1.0  T
   4     -7.7223642 -0.663973E-02  0.414E+00    0.46       1.0  T
   5     -7.7854055 -0.630413E-01  0.292E+00    0.49       1.0  T
   6     -7.7826555  0.275001E-02  0.256E+00    0.50       1.0  T
   7     -7.7093465  0.733091E-01  0.242E+00    0.76       1.0  T
   8     -7.7307951 -0.214487E-01  0.188E+00    0.78       1.0  T
   9     -7.7729381 -0.421430E-01  0.129E+00    0.64       1.0  T
  10     -7.7901242 -0.171861E-01  0.112E+00    0.57       1.0  T
  11     -7.7983055 -0.818128E-02  0.953E-01    0.54       1.0  T
  12     -7.8217209 -0.234154E-01  0.747E-01    0.42       1.0  T
  13     -7.8217631 -0.422409E-04  0.729E-01    0.42       1.0  T
  14     -7.8277832 -0.602008E-02  0.633E-01    0.39       1.0  T
  15     -7.8283131 -0.529861E-03  0.354E-01    0.38       1.0  T
  16     -7.8286232 -0.310147E-03  0.155E-01    0.38       1.0  T
  17     -7.8268060  0.181719E-02  0.324E-01    0.37       1.0  T
  18     -7.8272888 -0.482754E-03  0.227E-01    0.37       1.0  T
  19     -7.8286429 -0.135413E-02  0.164E-01    0.38       1.0  T
  20     -7.8286633 -0.203758E-04  0.129E-01    0.38       1.0  T
  21     -7.8286593  0.399120E-05  0.255E-02    0.38       1.4  T
  22     -7.8286741 -0.148017E-04  0.106E-02    0.38       3.3  T
  23     -7.8286744 -0.351223E-06  0.114E-02    0.38       3.1  T
  24     -7.8286744  0.939141E-08  0.168E-03    0.38      21.1  T
  25     -7.8286745 -0.138468E-07  0.209E-03    0.38      16.9  T
  26     -7.8286745 -0.646656E-08  0.943E-04    0.38      37.5  T
  27     -7.8286745 -0.226085E-08  0.428E-04    0.38      82.7  T
     SCC iter.                  ...        0 min,  0.006 sec
     gradient                   ...        0 min,  0.000 sec
 * total energy  :    -7.7241478 Eh     change       -0.6521973E-01 Eh
   gradient norm :     0.0996728 Eh/α   predicted    -0.6518160E-01 (  -0.06%)
   displ. norm   :     0.7804940 α      lambda       -0.6618395E-01
   maximum displ.:     0.4750214 α      in ANC's #6, #13, #9, ...

........................................................................
.............................. CYCLE    5 ..............................
........................................................................
   1     -7.8365610 -0.783656E+01  0.484E+00    0.63       0.0  T
   2      0.6338123  0.847037E+01  0.147E+01    0.86       1.0  T
   3     -7.4211216 -0.805493E+01  0.649E+00    1.74       1.0  T
   4     -7.4212158 -0.942307E-04  0.648E+00    1.74       1.0  T
   5     -7.5160753 -0.948595E-01  0.449E+00    1.37       1.0  T
   6     -7.5823891 -0.663139E-01  0.311E+00    1.30       1.0  T
   7     -7.6045192 -0.221301E-01  0.299E+00    1.28       1.0  T
   8     -7.6724272 -0.679080E-01  0.265E+00    1.11       1.0  T
   9     -7.6937503 -0.213231E-01  0.249E+00    1.04       1.0  T
  10     -7.7581430 -0.643927E-01  0.210E+00    0.88       1.0  T
  11     -7.8085189 -0.503759E-01  0.166E+00    0.75       1.0  T
  12     -7.7770907  0.314282E-01  0.194E+00    0.83       1.0  T
  13     -7.8876659 -0.110575E+00  0.111E+00    0.57       1.0  T
  14     -7.8791968  0.846919E-02  0.203E+00    0.55       1.0  T
  15     -7.8807248 -0.152802E-02  0.195E+00    0.55       1.0  T
  16     -7.8880829 -0.735809E-02  0.117E+00    0.57       1.0  T
  17     -7.8781917  0.989119E-02  0.161E+00    0.57       1.0  T
  18     -7.8801223 -0.193061E-02  0.152E+00    0.57       1.0  T
  19     -7.8834681 -0.334583E-02  0.129E+00    0.57       1.0  T
  20     -7.8857062 -0.223805E-02  0.105E+00    0.57       1.0  T
  21     -7.8890739 -0.336772E-02  0.372E-01    0.57       1.0  T
  22     -7.8893586 -0.284667E-03  0.155E-01    0.57       1.0  T
  23     -7.8897022 -0.343646E-03  0.896E-02    0.57       1.0  T
  24     -7.8897283 -0.260538E-04  0.124E-01    0.57       1.0  T
  25     -7.8897113  0.169613E-04  0.821E-02    0.57       1.0  T
  26     -7.8897163 -0.496682E-05  0.426E-02    0.57       1.0  T
  27     -7.8897310 -0.147495E-04  0.157E-02    0.57       2.2  T
  28     -7.8897341 -0.308164E-05  0.306E-03    0.57      11.6  T
  29     -7.8897342 -0.137052E-06  0.293E-03    0.57      12.1  T
  30     -7.8897343 -0.578016E-07  0.159E-04    0.57     221.8  T
  31     -7.8897343  0.374381E-09  0.140E-04    0.57     252.3  T
     SCC iter.                  ...        0 min,  0.005 sec
     gradient                   ...        0 min,  0.000 sec
 * total energy  :    -7.7741549 Eh     change       -0.5000710E-01 Eh
   gradient norm :     0.0956795 Eh/α   predicted    -0.5325065E-01 (   6.49%)
   displ. norm   :     0.7746953 α      lambda       -0.5324056E-01
   maximum displ.:     0.3630443 α      in ANC's #5, #12, #13, ...

........................................................................
.............................. CYCLE    6 ..............................
........................................................................
   1     -7.9263190 -0.792632E+01  0.301E+00    0.65       0.0  T
   2     -6.4064119  0.151991E+01  0.110E+01    0.25       1.0  T
   3     -7.6670099 -0.126060E+01  0.516E+00    1.33       1.0  T
   4     -7.7788156 -0.111806E+00  0.426E+00    1.12       1.0  T
   5     -7.8044037 -0.255882E-01  0.357E+00    0.93       1.0  T
   6     -7.8625219 -0.581181E-01  0.280E+00    0.82       1.0  T
   7     -7.8875149 -0.249930E-01  0.238E+00    0.74       1.0  T
   8     -7.9067806 -0.192657E-01  0.191E+00    0.69       1.0  T
   9     -7.9218703 -0.150896E-01  0.142E+00    0.64       1.0  T
  10     -7.9328088 -0.109385E-01  0.916E-01    0.61       1.0  T
  11     -7.9396334 -0.682465E-02  0.254E-01    0.58       1.0  T
  12     -7.9380385  0.159490E-02  0.476E-01    0.56       1.0  T
  13     -7.9385723 -0.533767E-03  0.416E-01    0.56       1.0  T
  14     -7.9401012 -0.152896E-02  0.365E-02    0.58       1.0  T
  15     -7.9401127 -0.114707E-04  0.319E-02    0.57       1.1  T
  16     -7.9401115  0.116931E-05  0.302E-02    0.57       1.2  T
  17     -7.9401111  0.450014E-06  0.164E-02    0.58       2.2  T
  18     -7.9401130 -0.189374E-05  0.541E-03    0.58       6.5  T
  19     -7.9401132 -0.194180E-06  0.230E-03    0.58      15.4  T
  20     -7.9401132 -0.441785E-07  0.797E-04    0.58      44.3  T
  21     -7.9401132 -0.489090E-08  0.395E-04    0.58      89.4  T
     SCC iter.                  ...        0 min,  0.003 sec
     gradient                   ...        0 min,  0.000 sec
 * total energy  :    -7.8057364 Eh     change       -0.3158152E-01 Eh
   gradient norm :     0.1050087 Eh/α   predicted    -0.4259651E-01 (  34.88%)
   displ. norm   :     0.7077772 α      lambda       -0.5331700E-01
   maximum displ.:     0.3532582 α      in ANC's #11, #12, #7, ...

........................................................................
.............................. CYCLE    7 ..............................
........................................................................
   1     -7.9046452 -0.790465E+01  0.249E+00    0.30       0.0  T
   2     -7.8974942  0.715098E-02  0.206E+00    0.30       1.0  T
   3     -7.6614503  0.236044E+00  0.412E+00    1.29       1.0  T
   4     -7.7671740 -0.105724E+00  0.445E+00    0.34       1.0  T
   5     -7.9029312 -0.135757E+00  0.855E-01    0.28       1.0  T
   6     -7.9061275 -0.319627E-02  0.481E-01    0.31       1.0  T
   7     -7.8922716  0.138559E-01  0.160E+00    0.37       1.0  T
   8     -7.8921851  0.865087E-04  0.160E+00    0.37       1.0  T
   9     -7.8756386  0.165465E-01  0.234E+00    0.44       1.0  T
  10     -7.8725880  0.305063E-02  0.270E+00    0.45       1.0  T
  11     -7.8793722 -0.678426E-02  0.230E+00    0.43       1.0  T
  12     -7.9063885 -0.270163E-01  0.513E-01    0.29       1.0  T
  13     -7.9053216  0.106693E-02  0.469E-01    0.31       1.0  T
  14     -7.9059214 -0.599784E-03  0.346E-01    0.31       1.0  T
  15     -7.9062733 -0.351959E-03  0.221E-01    0.31       1.0  T
  16     -7.9064019 -0.128528E-03  0.107E-01    0.31       1.0  T
  17     -7.9064368 -0.349042E-04  0.288E-02    0.32       1.2  T
  18     -7.9064403 -0.358477E-05  0.121E-02    0.32       2.9  T
  19     -7.9064406 -0.254498E-06  0.780E-03    0.32       4.5  T
  20     -7.9064409 -0.306431E-06  0.309E-03    0.32      11.5  T
  21     -7.9064410 -0.494724E-07  0.736E-04    0.32      48.1  T
  22     -7.9064410 -0.286963E-08  0.189E-04    0.32     187.3  T
     SCC iter.                  ...        0 min,  0.003 sec
     gradient                   ...        0 min,  0.000 sec
 * total energy  :    -7.8130410 Eh     change       -0.7304526E-02 Eh
   gradient norm :     0.1024590 Eh/α   predicted    -0.4001306E-01 ( 447.78%)
   displ. norm   :     0.4635109 α      lambda       -0.2962204E-01
   maximum displ.:     0.2663174 α      in ANC's #4, #2, #1, ...

........................................................................
.............................. CYCLE    8 ..............................
........................................................................
   1     -7.9344685 -0.793447E+01  0.204E+00    0.52       0.0  T
   2     -7.8664346  0.680340E-01  0.238E+00    0.68       1.0  T
   3     -7.1026947  0.763740E+00  0.913E+00    0.57       1.0  T
   4     -7.7831895 -0.680495E+00  0.433E+00    0.56       1.0  T
   5     -7.6696405  0.113549E+00  0.529E+00    0.58       1.0  T
   6     -7.7175559 -0.479153E-01  0.474E+00    0.59       1.0  T
   7     -7.8803764 -0.162821E+00  0.270E+00    0.47       1.0  T
   8     -7.9064410 -0.260646E-01  0.182E+00    0.46       1.0  T
   9     -7.9304417 -0.240007E-01  0.979E-01    0.45       1.0  T
  10     -7.9371430 -0.670131E-02  0.529E-01    0.46       1.0  T
  11     -7.9388588 -0.171583E-02  0.177E-01    0.48       1.0  T
  12     -7.9390026 -0.143797E-03  0.103E-01    0.48       1.0  T
  13     -7.9391329 -0.130331E-03  0.612E-02    0.48       1.0  T
  14     -7.9391684 -0.354718E-04  0.342E-02    0.48       1.0  T
  15     -7.9391666  0.182135E-05  0.225E-02    0.48       1.6  T
  16     -7.9391667 -0.156762E-06  0.173E-02    0.48       2.0  T
  17     -7.9391694 -0.262743E-05  0.496E-03    0.48       7.1  T
  18     -7.9391694 -0.242121E-07  0.195E-03    0.48      18.1  T
  19     -7.9391694  0.172247E-07  0.158E-03    0.48      22.4  T
  20     -7.9391694 -0.238876E-07  0.514E-04    0.48      68.8  T
  21     -7.9391694 -0.207512E-08  0.203E-04    0.48     174.1  T
     SCC iter.                  ...        0 min,  0.003 sec
     gradient                   ...        0 min,  0.000 sec
 * total energy  :    -7.8260150 Eh     change       -0.1297404E-01 Eh
   gradient norm :     0.0549006 Eh/α   predicted    -0.1799306E-01 (  38.69%)
   displ. norm   :     0.6060958 α      lambda       -0.2408294E-01
   maximum displ.:     0.3527417 α      in ANC's #3, #7, #6, ...

........................................................................
.............................. CYCLE    9 ..............................
........................................................................
   1     -7.9919285 -0.799193E+01  0.240E+00    0.37       0.0  T
   2     -7.9673359  0.245926E-01  0.299E+00    0.55       1.0  T
   3     -7.9664788  0.857196E-03  0.302E+00    0.55       1.0  T
   4     -7.9010499  0.654289E-01  0.361E+00    0.65       1.0  T
   5     -7.9900277 -0.889778E-01  0.697E-01    0.40       1.0  T
   6     -7.9937644 -0.373663E-02  0.189E-01    0.41       1.0  T
   7     -7.9926279  0.113644E-02  0.392E-01    0.43       1.0  T
   8     -7.9938761 -0.124817E-02  0.753E-02    0.42       1.0  T
   9     -7.9936660  0.210080E-03  0.201E-01    0.41       1.0  T
  10     -7.9936470  0.190341E-04  0.204E-01    0.41       1.0  T
  11     -7.9938532 -0.206193E-03  0.842E-02    0.41       1.0  T
  12     -7.9938517  0.147698E-05  0.835E-02    0.41       1.0  T
  13     -7.9938828 -0.311637E-04  0.384E-02    0.42       1.0  T
  14     -7.9938865 -0.365043E-05  0.214E-02    0.42       1.7  T
  15     -7.9938875 -0.101661E-05  0.151E-02    0.42       2.3  T
  16     -7.9938882 -0.688993E-06  0.838E-03    0.42       4.2  T
  17     -7.9938885 -0.322401E-06  0.194E-03    0.42      18.2  T
  18     -7.9938885 -0.173203E-07  0.650E-04    0.42      54.4  T
  19     -7.9938885 -0.240729E-08  0.334E-05    0.42    1058.0  T
     SCC iter.                  ...        0 min,  0.002 sec
     gradient                   ...        0 min,  0.000 sec
 * total energy  :    -7.8264002 Eh     change       -0.3851571E-03 Eh
   gradient norm :     0.1133370 Eh/α   predicted    -0.1646493E-01 (4174.86%)
   displ. norm   :     0.3445221 α      lambda       -0.2585696E-01
   maximum displ.:     0.1782266 α      in ANC's #5, #3, #6, ...

........................................................................
.............................. CYCLE   10 ..............................
........................................................................
   1     -7.9194371 -0.791944E+01  0.420E+00    0.42       0.0  T
   2     -7.4846892  0.434748E+00  0.625E+00    1.74       1.0  T
   3     -7.5521741 -0.674850E-01  0.606E+00    0.78       1.0  T
   4     -7.8998745 -0.347700E+00  0.351E+00    0.47       1.0  T
   5     -7.9408998 -0.410253E-01  0.201E+00    0.36       1.0  T
   6     -7.9657002 -0.248004E-01  0.807E-01    0.35       1.0  T
   7     -7.9537437  0.119564E-01  0.121E+00    0.37       1.0  T
   8     -7.9641715 -0.104278E-01  0.477E-01    0.36       1.0  T
   9     -7.9652641 -0.109262E-02  0.326E-01    0.36       1.0  T
  10     -7.9659809 -0.716772E-03  0.438E-01    0.37       1.0  T
  11     -7.9658203  0.160557E-03  0.229E-01    0.37       1.0  T
  12     -7.9660607 -0.240345E-03  0.157E-01    0.37       1.0  T
  13     -7.9662107 -0.149993E-03  0.160E-01    0.37       1.0  T
  14     -7.9662107 -0.710766E-07  0.135E-01    0.37       1.0  T
  15     -7.9662039  0.687534E-05  0.121E-01    0.37       1.0  T
  16     -7.9662018  0.203552E-05  0.875E-02    0.38       1.0  T
  17     -7.9662105 -0.862913E-05  0.509E-02    0.38       1.0  T
  18     -7.9662135 -0.301443E-05  0.294E-02    0.38       1.2  T
  19     -7.9662145 -0.100388E-05  0.138E-02    0.38       2.6  T
  20     -7.9662148 -0.296633E-06  0.307E-03    0.38      11.5  T
  21     -7.9662148 -0.344389E-07  0.901E-04    0.38      39.3  T
  22     -7.9662148 -0.673098E-08  0.131E-04    0.38     270.8  T
     SCC iter.                  ...        0 min,  0.003 sec
     gradient                   ...        0 min,  0.000 sec
 * total energy  :    -7.8398565 Eh     change       -0.1345636E-01 Eh
   gradient norm :     0.0507806 Eh/α   predicted    -0.1446304E-01 (   7.48%)
   displ. norm   :     0.5750794 α      lambda       -0.1732637E-01
   maximum displ.:     0.3087848 α      in ANC's #5, #8, #3, ...

........................................................................
.............................. CYCLE   11 ..............................
........................................................................
   1     -7.9080341 -0.790803E+01  0.443E+00    0.63       0.0  T
   2     -7.3648743  0.543160E+00  0.750E+00    1.14       1.0  T
   3     -7.8190004 -0.454126E+00  0.411E+00    0.89       1.0  T
   4     -7.9518158 -0.132815E+00  0.170E+00    0.24       1.0  T
   5     -7.9597682 -0.795241E-02  0.120E+00    0.27       1.0  T
   6     -7.9597774 -0.922205E-05  0.128E+00    0.33       1.0  T
   7     -7.9602059 -0.428520E-03  0.110E+00    0.30       1.0  T
   8     -7.9601432  0.627065E-04  0.708E-01    0.36       1.0  T
   9     -7.9610076 -0.864392E-03  0.344E-01    0.32       1.0  T
  10     -7.9607617  0.245855E-03  0.245E-01    0.32       1.0  T
  11     -7.9611091 -0.347356E-03  0.516E-02    0.35       1.0  T
  12     -7.9611088  0.352022E-06  0.463E-02    0.35       1.0  T
  13     -7.9611134 -0.465831E-05  0.345E-02    0.35       1.0  T
  14     -7.9611166 -0.319717E-05  0.125E-02    0.35       2.8  T
  15     -7.9611166  0.137367E-07  0.102E-02    0.35       3.5  T
  16     -7.9611165  0.468765E-07  0.863E-03    0.35       4.1  T
  17     -7.9611168 -0.215668E-06  0.528E-03    0.35       6.7  T
  18     -7.9611168 -0.402343E-07  0.210E-03    0.35      16.9  T
  19     -7.9611168 -0.358772E-09  0.164E-03    0.35      21.6  T
  20     -7.9611168 -0.770166E-08  0.508E-04    0.35      69.6  T
  21     -7.9611168 -0.524913E-09  0.250E-04    0.35     141.5  T
     SCC iter.                  ...        0 min,  0.004 sec
     gradient                   ...        0 min,  0.000 sec
 * total energy  :    -7.8594270 Eh     change       -0.1957045E-01 Eh
   gradient norm :     0.0874548 Eh/α   predicted    -0.1152824E-01 ( -41.09%)
   displ. norm   :     0.6994879 α      lambda       -0.4939906E-01
   maximum displ.:     0.3210950 α      in ANC's #9, #8, #7, ...

........................................................................
.............................. CYCLE   12 ..............................
........................................................................
   1     -8.0126269 -0.801263E+01  0.316E+00    0.94       0.0  T
   2     -7.9795621  0.330649E-01  0.355E+00    0.10       1.0  T
   3     -8.0131115 -0.335495E-01  0.182E+00    1.02       1.0  T
   4     -7.9864161  0.266955E-01  0.267E+00    0.48       1.0  T
   5     -8.0178647 -0.314486E-01  0.136E+00    0.43       1.0  T
   6     -8.0198383 -0.197365E-02  0.988E-01    0.49       1.0  T
   7     -8.0225873 -0.274900E-02  0.482E-01    0.68       1.0  T
   8     -8.0237630 -0.117569E-02  0.130E-01    0.74       1.0  T
   9     -8.0237506  0.124431E-04  0.942E-02    0.73       1.0  T
  10     -8.0237689 -0.183556E-04  0.635E-02    0.74       1.0  T
  11     -8.0237853 -0.163974E-04  0.211E-02    0.75       1.7  T
  12     -8.0237855 -0.160437E-06  0.155E-02    0.75       2.3  T
  13     -8.0237863 -0.808012E-06  0.269E-03    0.76      13.2  T
  14     -8.0237863  0.624700E-09  0.180E-03    0.76      19.7  T
  15     -8.0237863  0.136498E-07  0.232E-03    0.76      15.2  T
  16     -8.0237863 -0.179553E-07  0.638E-04    0.76      55.4  T
  17     -8.0237863 -0.707418E-09  0.359E-04    0.76      98.5  T
     SCC iter.                  ...        0 min,  0.002 sec
     gradient                   ...        0 min,  0.000 sec
 * total energy  :    -7.9128644 Eh     change       -0.5343738E-01 Eh
   gradient norm :     0.1427033 Eh/α   predicted    -0.3678458E-01 ( -31.16%)
   displ. norm   :     0.8986571 α      lambda       -0.7598237E-01
   maximum displ.:     0.3807942 α      in ANC's #7, #8, #9, ...

........................................................................
.............................. CYCLE   13 ..............................
........................................................................
   1     -8.1309937 -0.813099E+01  0.255E+00    0.91       0.0  T
   2     -8.1310183 -0.246643E-04  0.170E+00    0.62       1.0  T
   3     -8.1002597  0.307586E-01  0.190E+00    0.60       1.0  T
   4     -8.1314121 -0.311524E-01  0.600E-01    0.98       1.0  T
   5     -8.1332507 -0.183865E-02  0.192E-01    0.62       1.0  T
   6     -8.1333457 -0.949414E-04  0.127E-01    0.67       1.0  T
   7     -8.1333963 -0.505678E-04  0.744E-02    0.68       1.0  T
   8     -8.1334081 -0.118972E-04  0.379E-02    0.67       1.0  T
   9     -8.1334104 -0.226785E-05  0.163E-02    0.66       2.2  T
  10     -8.1334110 -0.581274E-06  0.359E-03    0.66       9.9  T
  11     -8.1334110 -0.323862E-08  0.185E-03    0.66      19.1  T
  12     -8.1334110 -0.118678E-07  0.311E-04    0.66     113.5  T
  13     -8.1334110 -0.138412E-09  0.109E-04    0.66     323.7  T
     SCC iter.                  ...        0 min,  0.002 sec
     gradient                   ...        0 min,  0.000 sec
 * total energy  :    -7.8510595 Eh     change        0.6180491E-01 Eh
   gradient norm :     0.7235929 Eh/α   predicted    -0.6867226E-01 (-211.11%)
   displ. norm   :     0.4595925 α      lambda       -0.2961310E+00
   maximum displ.:     0.2217423 α      in ANC's #8, #17, #11, ...

........................................................................
.............................. CYCLE   14 ..............................
........................................................................
   1     -8.1711275 -0.817113E+01  0.122E+00    1.32       0.0  T
   2     -8.1713674 -0.239907E-03  0.763E-01    1.24       1.0  T
   3     -8.1683011  0.306629E-02  0.827E-01    1.39       1.0  T
   4     -8.1718609 -0.355977E-02  0.211E-01    1.28       1.0  T
   5     -8.1720101 -0.149238E-03  0.175E-01    1.31       1.0  T
   6     -8.1721670 -0.156890E-03  0.469E-02    1.30       1.0  T
   7     -8.1721774 -0.103684E-04  0.147E-02    1.30       2.4  T
   8     -8.1721780 -0.566756E-06  0.507E-03    1.29       7.0  T
   9     -8.1721780 -0.296765E-07  0.278E-03    1.30      12.7  T
  10     -8.1721780 -0.473818E-08  0.108E-03    1.30      32.6  T
  11     -8.1721780 -0.755746E-09  0.521E-04    1.30      67.8  T
  12     -8.1721780 -0.148345E-08  0.152E-04    1.30     232.0  T
     SCC iter.                  ...        0 min,  0.002 sec
     gradient                   ...        0 min,  0.001 sec
 * total energy  :    -7.9321583 Eh     change       -0.8109884E-01 Eh
   gradient norm :     0.2260187 Eh/α   predicted    -0.1793407E+00 ( 121.14%)
   displ. norm   :     0.7935554 α      lambda       -0.1376236E+00
   maximum displ.:     0.4372956 α      in ANC's #17, #14, #7, ...

........................................................................
.............................. CYCLE   15 ..............................
........................................................................
   1     -7.9979971 -0.799800E+01  0.240E+00    0.40       0.0  T
   2     -7.9968214  0.117565E-02  0.131E+00    1.09       1.0  T
   3     -7.9406697  0.561517E-01  0.294E+00    0.10       1.0  T
   4     -7.9976511 -0.569814E-01  0.629E-01    0.96       1.0  T
   5     -8.0002737 -0.262265E-02  0.416E-01    0.91       1.0  T
   6     -8.0008601 -0.586349E-03  0.312E-01    0.85       1.0  T
   7     -8.0008905 -0.304680E-04  0.195E-01    0.78       1.0  T
   8     -8.0008305  0.600516E-04  0.173E-01    0.76       1.0  T
   9     -8.0008488 -0.183739E-04  0.151E-01    0.75       1.0  T
  10     -8.0009465 -0.976209E-04  0.799E-02    0.78       1.0  T
  11     -8.0009717 -0.252613E-04  0.465E-02    0.79       1.0  T
  12     -8.0009779 -0.621845E-05  0.270E-02    0.80       1.3  T
  13     -8.0009816 -0.362012E-05  0.313E-03    0.81      11.3  T
  14     -8.0009816 -0.527461E-08  0.532E-04    0.81      66.5  T
  15     -8.0009816 -0.154604E-08  0.130E-04    0.81     271.1  T
     SCC iter.                  ...        0 min,  0.001 sec
     gradient                   ...        0 min,  0.000 sec
 * total energy  :    -7.9163446 Eh     change        0.1581367E-01 Eh
   gradient norm :     0.1606014 Eh/α   predicted    -0.1121447E+00 (-809.16%)
   displ. norm   :     0.3990801 α      lambda       -0.5389168E-01
   maximum displ.:     0.1985412 α      in ANC's #5, #14, #16, ...

........................................................................
.............................. CYCLE   16 ..............................
........................................................................
   1     -8.0815952 -0.808160E+01  0.968E-01    1.11       0.0  T
   2     -8.0816295 -0.342724E-04  0.582E-01    1.01       1.0  T
   3     -8.0799752  0.165433E-02  0.673E-01    1.17       1.0  T
   4     -8.0815386 -0.156344E-02  0.194E-01    1.08       1.0  T
   5     -8.0819282 -0.389602E-03  0.129E-01    1.10       1.0  T
   6     -8.0819245  0.369191E-05  0.117E-01    1.10       1.0  T
   7     -8.0819638 -0.393137E-04  0.445E-02    1.10       1.0  T
   8     -8.0819669 -0.302183E-05  0.252E-02    1.09       1.4  T
   9     -8.0819687 -0.179597E-05  0.702E-03    1.09       5.0  T
  10     -8.0819687 -0.341223E-07  0.194E-03    1.09      18.2  T
  11     -8.0819687 -0.106340E-07  0.751E-04    1.09      47.1  T
  12     -8.0819687 -0.990896E-09  0.356E-04    1.09      99.3  T
     SCC iter.                  ...        0 min,  0.002 sec
     gradient                   ...        0 min,  0.001 sec
 * total energy  :    -7.9565440 Eh     change       -0.4019942E-01 Eh
   gradient norm :     0.0781934 Eh/α   predicted    -0.3123738E-01 ( -22.29%)
   displ. norm   :     0.6548377 α      lambda       -0.4049256E-01
   maximum displ.:     0.2869688 α      in ANC's #14, #16, #3, ...

........................................................................
.............................. CYCLE   17 ..............................
........................................................................
   1     -8.1622432 -0.816224E+01  0.193E+00    1.21       0.0  T
   2     -8.1604739  0.176929E-02  0.131E+00    1.29       1.0  T
   3     -8.1171120  0.433619E-01  0.253E+00    0.96       1.0  T
   4     -8.1620270 -0.449150E-01  0.350E-01    1.19       1.0  T
   5     -8.1629790 -0.952033E-03  0.147E-01    1.20       1.0  T
   6     -8.1630055 -0.264975E-04  0.981E-02    1.20       1.0  T
   7     -8.1630293 -0.238189E-04  0.279E-02    1.21       1.3  T
   8     -8.1630285  0.777637E-06  0.281E-02    1.21       1.3  T
   9     -8.1630291 -0.600149E-06  0.240E-02    1.21       1.5  T
  10     -8.1630312 -0.211548E-05  0.482E-03    1.21       7.3  T
  11     -8.1630313 -0.162632E-07  0.189E-03    1.21      18.7  T
  12     -8.1630313 -0.368411E-08  0.515E-04    1.21      68.6  T
  13     -8.1630313 -0.695751E-09  0.254E-04    1.21     139.3  T
     SCC iter.                  ...        0 min,  0.001 sec
     gradient                   ...        0 min,  0.000 sec
 * total energy  :    -7.9218384 Eh     change        0.3470563E-01 Eh
   gradient norm :     0.3676216 Eh/α   predicted    -0.2892811E-01 (-183.35%)
   displ. norm   :     0.3730282 α      lambda       -0.1335783E+00
   maximum displ.:     0.2433909 α      in ANC's #14, #16, #15, ...

........................................................................
.............................. CYCLE   18 ..............................
........................................................................
   1     -8.1291193 -0.812912E+01  0.826E-01    1.25       0.0  T
   2     -8.1288213  0.297974E-03  0.549E-01    1.20       1.0  T
   3     -8.1255409  0.328037E-02  0.739E-01    1.32       1.0  T
   4     -8.1292695 -0.372862E-02  0.992E-02    1.24       1.0  T
   5     -8.1292781 -0.852070E-05  0.108E-01    1.25       1.0  T
   6     -8.1293162 -0.381252E-04  0.603E-02    1.24       1.0  T
   7     -8.1293296 -0.133860E-04  0.202E-02    1.24       1.7  T
   8     -8.1293298 -0.255333E-06  0.117E-02    1.24       3.0  T
   9     -8.1293302 -0.329691E-06  0.525E-03    1.24       6.7  T
  10     -8.1293302 -0.345074E-07  0.154E-03    1.24      22.9  T
  11     -8.1293302 -0.115829E-07  0.534E-04    1.24      66.2  T
  12     -8.1293302 -0.642435E-09  0.133E-04    1.24     265.2  T
     SCC iter.                  ...        0 min,  0.002 sec
     gradient                   ...        0 min,  0.001 sec
 * total energy  :    -7.9617116 Eh     change       -0.3987322E-01 Eh
   gradient norm :     0.0847054 Eh/α   predicted    -0.7608290E-01 (  90.81%)
   displ. norm   :     0.5434633 α      lambda       -0.2494396E-01
   maximum displ.:     0.2668914 α      in ANC's #7, #3, #4, ...

........................................................................
.............................. CYCLE   19 ..............................
........................................................................
   1     -8.1027081 -0.810271E+01  0.186E+00    0.53       0.0  T
   2     -8.1017686  0.939470E-03  0.131E+00    0.37       1.0  T
   3     -8.0895911  0.121776E-01  0.149E+00    0.94       1.0  T
   4     -8.1032045 -0.136134E-01  0.217E-01    0.54       1.0  T
   5     -8.1032224 -0.179677E-04  0.230E-01    0.58       1.0  T
   6     -8.1031858  0.365946E-04  0.216E-01    0.59       1.0  T
   7     -8.1032748 -0.890043E-04  0.110E-01    0.58       1.0  T
   8     -8.1032813 -0.643201E-05  0.894E-02    0.57       1.0  T
   9     -8.1033032 -0.218876E-04  0.164E-02    0.56       2.2  T
  10     -8.1033030  0.196662E-06  0.918E-03    0.56       3.9  T
  11     -8.1033033 -0.365712E-06  0.195E-03    0.55      18.1  T
  12     -8.1033033 -0.441653E-08  0.568E-04    0.55      62.2  T
  13     -8.1033033 -0.396827E-09  0.137E-04    0.55     259.0  T
     SCC iter.                  ...        0 min,  0.001 sec
     gradient                   ...        0 min,  0.000 sec
 * total energy  :    -7.9573562 Eh     change        0.4355413E-02 Eh
   gradient norm :     0.0848801 Eh/α   predicted    -0.1615560E-01 (-470.93%)
   displ. norm   :     0.3264949 α      lambda       -0.1842501E-01
   maximum displ.:     0.1927109 α      in ANC's #3, #2, #7, ...

........................................................................
.............................. CYCLE   20 ..............................
........................................................................
   1     -8.1195367 -0.811954E+01  0.154E+00    1.11       0.0  T
   2     -8.1181076  0.142911E-02  0.110E+00    1.21       1.0  T
   3     -8.1073350  0.107726E-01  0.158E+00    0.90       1.0  T
   4     -8.1200658 -0.127309E-01  0.243E-01    1.09       1.0  T
   5     -8.1200945 -0.286990E-04  0.226E-01    1.10       1.0  T
   6     -8.1202388 -0.144212E-03  0.151E-01    1.10       1.0  T
   7     -8.1202828 -0.440781E-04  0.946E-02    1.11       1.0  T
   8     -8.1202866 -0.381878E-05  0.776E-02    1.11       1.0  T
   9     -8.1203059 -0.192550E-04  0.128E-02    1.12       2.8  T
  10     -8.1203062 -0.303925E-06  0.203E-03    1.12      17.4  T
  11     -8.1203062 -0.397741E-08  0.659E-04    1.12      53.7  T
  12     -8.1203062 -0.156362E-09  0.225E-04    1.12     157.4  T
     SCC iter.                  ...        0 min,  0.002 sec
     gradient                   ...        0 min,  0.000 sec
 * total energy  :    -7.9680904 Eh     change       -0.1073417E-01 Eh
   gradient norm :     0.0357863 Eh/α   predicted    -0.1019455E-01 (  -5.03%)
   displ. norm   :     0.3021029 α      lambda       -0.5091664E-02
   maximum displ.:     0.1958909 α      in ANC's #1, #4, #5, ...
 * RMSD in coord.:     1.6544557 α      energy gain  -0.5470374E+00 Eh

generating ANC from model Hessian ...
Using Lindh-Hessian (1995)
 Shifting diagonal of input Hessian by    1.0629750635046471E-002
 Lowest  eigenvalues of input Hessian
    0.010000    0.010221    0.000000    0.000000    0.000000    0.000000
    0.000000    0.000000    0.011324    0.012543    0.013127    0.022246
    0.028114    0.077099    0.119415    0.204755    0.217252    0.364848
 Highest eigenvalues
    0.533611    0.563750    0.580995    1.237303    1.510559    2.219424


........................................................................
.............................. CYCLE   21 ..............................
........................................................................
   1     -8.1502671 -0.815027E+01  0.132E+00    1.16       0.0  T
   2     -8.1496270  0.640076E-03  0.717E-01    1.07       1.0  T
   3     -8.1451279  0.449914E-02  0.118E+00    1.24       1.0  T
   4     -8.1506548 -0.552688E-02  0.260E-01    1.13       1.0  T
   5     -8.1509773 -0.322531E-03  0.185E-01    1.15       1.0  T
   6     -8.1509871 -0.979278E-05  0.147E-01    1.15       1.0  T
   7     -8.1510409 -0.537766E-04  0.435E-02    1.14       1.0  T
   8     -8.1510465 -0.560388E-05  0.211E-02    1.14       1.7  T
   9     -8.1510467 -0.214215E-06  0.546E-03    1.13       6.5  T
  10     -8.1510467  0.510135E-07  0.382E-03    1.13       9.3  T
  11     -8.1510467 -0.818486E-07  0.707E-04    1.13      50.0  T
  12     -8.1510467  0.661746E-09  0.539E-04    1.13      65.6  T
     SCC iter.                  ...        0 min,  0.002 sec
     gradient                   ...        0 min,  0.000 sec
 * total energy  :    -7.9665770 Eh     change        0.1513365E-02 Eh
   gradient norm :     0.0814107 Eh/α   predicted     0.0000000E+00 (-100.00%)
   displ. norm   :     0.3255073 α      lambda       -0.7289585E-02
   maximum displ.:     0.2733929 α      in ANC's #5, #4, #10, ...

........................................................................
.............................. CYCLE   22 ..............................
........................................................................
   1     -8.1381880 -0.813819E+01  0.816E-01    1.10       0.0  T
   2     -8.1379998  0.188208E-03  0.479E-01    1.15       1.0  T
   3     -8.1354284  0.257145E-02  0.810E-01    1.04       1.0  T
   4     -8.1382767 -0.284836E-02  0.135E-01    1.12       1.0  T
   5     -8.1383172 -0.404351E-04  0.127E-01    1.11       1.0  T
   6     -8.1383593 -0.421745E-04  0.625E-02    1.12       1.0  T
   7     -8.1383673 -0.798803E-05  0.338E-02    1.12       1.0  T
   8     -8.1383682 -0.832314E-06  0.246E-02    1.12       1.4  T
   9     -8.1383695 -0.130058E-05  0.283E-03    1.12      12.5  T
  10     -8.1383695 -0.160720E-07  0.748E-04    1.12      47.2  T
  11     -8.1383695 -0.114235E-08  0.241E-04    1.12     146.6  T
     SCC iter.                  ...        0 min,  0.002 sec
     gradient                   ...        0 min,  0.000 sec
 * total energy  :    -7.9714979 Eh     change       -0.4920849E-02 Eh
   gradient norm :     0.0189516 Eh/α   predicted    -0.4030979E-02 ( -18.08%)
   displ. norm   :     0.3755290 α      lambda       -0.2535042E-02
   maximum displ.:     0.3116975 α      in ANC's #5, #4, #6, ...

........................................................................
.............................. CYCLE   23 ..............................
........................................................................
   1     -8.1341685 -0.813417E+01  0.122E+00    1.14       0.0  T
   2     -8.1339221  0.246368E-03  0.736E-01    1.18       1.0  T
   3     -8.1261694  0.775277E-02  0.123E+00    1.01       1.0  T
   4     -8.1342559 -0.808655E-02  0.133E-01    1.15       1.0  T
   5     -8.1342741 -0.182109E-04  0.121E-01    1.14       1.0  T
   6     -8.1343121 -0.379713E-04  0.715E-02    1.15       1.0  T
   7     -8.1343197 -0.757467E-05  0.446E-02    1.15       1.0  T
   8     -8.1343206 -0.921637E-06  0.373E-02    1.15       1.0  T
   9     -8.1343248 -0.418409E-05  0.314E-03    1.15      11.3  T
  10     -8.1343248 -0.873610E-08  0.107E-03    1.15      33.1  T
  11     -8.1343248 -0.938964E-09  0.329E-04    1.15     107.3  T
  12     -8.1343248  0.269296E-11  0.210E-04    1.15     168.6  T
     SCC iter.                  ...        0 min,  0.001 sec
     gradient                   ...        0 min,  0.001 sec
 * total energy  :    -7.9732938 Eh     change       -0.1795887E-02 Eh
   gradient norm :     0.0103901 Eh/α   predicted    -0.1446279E-02 ( -19.47%)
   displ. norm   :     0.3801795 α      lambda       -0.1316457E-02
   maximum displ.:     0.3098384 α      in ANC's #5, #6, #4, ...

........................................................................
.............................. CYCLE   24 ..............................
........................................................................
   1     -8.1344401 -0.813444E+01  0.129E+00    1.20       0.0  T
   2     -8.1343016  0.138589E-03  0.805E-01    1.22       1.0  T
   3     -8.1268986  0.740296E-02  0.109E+00    1.09       1.0  T
   4     -8.1344915 -0.759294E-02  0.902E-02    1.20       1.0  T
   5     -8.1345004 -0.885714E-05  0.800E-02    1.20       1.0  T
   6     -8.1345183 -0.178768E-04  0.418E-02    1.20       1.0  T
   7     -8.1345205 -0.218906E-05  0.300E-02    1.20       1.2  T
   8     -8.1345204  0.743237E-07  0.272E-02    1.20       1.3  T
   9     -8.1345229 -0.254782E-05  0.244E-03    1.21      14.5  T
  10     -8.1345229 -0.506434E-08  0.735E-04    1.21      48.1  T
  11     -8.1345229 -0.237591E-09  0.258E-04    1.21     137.3  T
     SCC iter.                  ...        0 min,  0.001 sec
     gradient                   ...        0 min,  0.000 sec
 * total energy  :    -7.9742812 Eh     change       -0.9873865E-03 Eh
   gradient norm :     0.0133333 Eh/α   predicted    -0.7533582E-03 ( -23.70%)
   displ. norm   :     0.3291008 α      lambda       -0.7787022E-03
   maximum displ.:     0.2643568 α      in ANC's #5, #4, #6, ...

........................................................................
.............................. CYCLE   25 ..............................
........................................................................
   1     -8.1371625 -0.813716E+01  0.104E+00    1.24       0.0  T
   2     -8.1371368  0.257673E-04  0.667E-01    1.25       1.0  T
   3     -8.1349012  0.223561E-02  0.552E-01    1.19       1.0  T
   4     -8.1371812 -0.228004E-02  0.472E-02    1.24       1.0  T
   5     -8.1371770  0.417365E-05  0.467E-02    1.24       1.0  T
   6     -8.1371841 -0.710665E-05  0.177E-02    1.24       2.0  T
   7     -8.1371847 -0.536834E-06  0.153E-02    1.24       2.3  T
   8     -8.1371846  0.380746E-07  0.136E-02    1.24       2.6  T
   9     -8.1371854 -0.739490E-06  0.109E-03    1.24      32.6  T
  10     -8.1371854 -0.563078E-09  0.365E-04    1.24      96.9  T
  11     -8.1371854 -0.527658E-09  0.108E-04    1.24     327.0  T
     SCC iter.                  ...        0 min,  0.002 sec
     gradient                   ...        0 min,  0.000 sec
 * total energy  :    -7.9748657 Eh     change       -0.5845538E-03 Eh
   gradient norm :     0.0069367 Eh/α   predicted    -0.4315203E-03 ( -26.18%)
   displ. norm   :     0.2863142 α      lambda       -0.3942005E-03
   maximum displ.:     0.2301785 α      in ANC's #5, #4, #6, ...

........................................................................
.............................. CYCLE   26 ..............................
........................................................................
   1     -8.1393612 -0.813936E+01  0.797E-01    1.26       0.0  T
   2     -8.1393596  0.155427E-05  0.519E-01    1.26       1.0  T
   3     -8.1389152  0.444469E-03  0.232E-01    1.24       1.0  T
   4     -8.1393684 -0.453223E-03  0.327E-02    1.26       1.1  T
   5     -8.1393679  0.485809E-06  0.301E-02    1.26       1.2  T
   6     -8.1393703 -0.235332E-05  0.983E-03    1.26       3.6  T
   7     -8.1393702  0.185581E-07  0.897E-03    1.26       3.9  T
   8     -8.1393704 -0.212401E-06  0.587E-03    1.26       6.0  T
   9     -8.1393706 -0.109806E-06  0.659E-04    1.26      53.7  T
  10     -8.1393706 -0.731042E-09  0.105E-04    1.26     336.4  T
     SCC iter.                  ...        0 min,  0.001 sec
     gradient                   ...        0 min,  0.000 sec
 * total energy  :    -7.9751441 Eh     change       -0.2783614E-03 Eh
   gradient norm :     0.0018524 Eh/α   predicted    -0.2132581E-03 ( -23.39%)
   displ. norm   :     0.2958131 α      lambda       -0.1277974E-03
   maximum displ.:     0.2369384 α      in ANC's #5, #4, #6, ...

........................................................................
.............................. CYCLE   27 ..............................
........................................................................
   1     -8.1400898 -0.814009E+01  0.731E-01    1.27       0.0  T
   2     -8.1400913 -0.146364E-05  0.477E-01    1.27       1.0  T
   3     -8.1399137  0.177553E-03  0.144E-01    1.26       1.0  T
   4     -8.1400917 -0.178030E-03  0.368E-02    1.27       1.0  T
   5     -8.1400951 -0.337323E-05  0.278E-02    1.27       1.3  T
   6     -8.1400971 -0.201566E-05  0.634E-03    1.27       5.6  T
   7     -8.1400972 -0.103898E-06  0.489E-03    1.27       7.2  T
   8     -8.1400973 -0.526643E-07  0.353E-03    1.27      10.0  T
   9     -8.1400973 -0.370037E-07  0.924E-04    1.27      38.3  T
  10     -8.1400973 -0.317209E-08  0.898E-05    1.27     393.6  T
     SCC iter.                  ...        0 min,  0.001 sec
     gradient                   ...        0 min,  0.000 sec
 * total energy  :    -7.9752562 Eh     change       -0.1121575E-03 Eh
   gradient norm :     0.0026323 Eh/α   predicted    -0.6638315E-04 ( -40.81%)
   displ. norm   :     0.0551346 α      lambda       -0.2289925E-04
   maximum displ.:     0.0471173 α      in ANC's #5, #4, #3, ...

........................................................................
.............................. CYCLE   28 ..............................
........................................................................
   1     -8.1404206 -0.814042E+01  0.539E-02    1.27       0.0  T
   2     -8.1404202  0.401602E-06  0.326E-02    1.27       1.1  T
   3     -8.1404035  0.166633E-04  0.486E-02    1.26       1.0  T
   4     -8.1404205 -0.169445E-04  0.779E-03    1.27       4.5  T
   5     -8.1404207 -0.166412E-06  0.706E-03    1.27       5.0  T
   6     -8.1404208 -0.159763E-06  0.216E-03    1.27      16.4  T
   7     -8.1404208 -0.117011E-07  0.115E-03    1.27      30.8  T
   8     -8.1404208 -0.130167E-08  0.635E-04    1.27      55.7  T
   9     -8.1404208 -0.137418E-08  0.126E-04    1.27     280.7  T
     SCC iter.                  ...        0 min,  0.001 sec
     gradient                   ...        0 min,  0.000 sec
 * total energy  :    -7.9752757 Eh     change       -0.1948160E-04 Eh
   gradient norm :     0.0016354 Eh/α   predicted    -0.1148616E-04 ( -41.04%)
   displ. norm   :     0.1429848 α      lambda       -0.3979484E-04
   maximum displ.:     0.1055063 α      in ANC's #5, #2, #4, ...

........................................................................
.............................. CYCLE   29 ..............................
........................................................................
   1     -8.1397056 -0.813971E+01  0.206E-01    1.26       0.0  T
   2     -8.1397034  0.215006E-05  0.128E-01    1.26       1.0  T
   3     -8.1395670  0.136374E-03  0.132E-01    1.25       1.0  T
   4     -8.1397040 -0.136957E-03  0.259E-02    1.26       1.4  T
   5     -8.1397055 -0.146415E-05  0.221E-02    1.26       1.6  T
   6     -8.1397070 -0.152973E-05  0.612E-03    1.26       5.8  T
   7     -8.1397071 -0.636357E-07  0.427E-03    1.26       8.3  T
   8     -8.1397071 -0.189043E-07  0.299E-03    1.26      11.8  T
   9     -8.1397071 -0.303619E-07  0.607E-04    1.26      58.3  T
  10     -8.1397071 -0.143426E-08  0.106E-04    1.26     334.5  T
     SCC iter.                  ...        0 min,  0.001 sec
     gradient                   ...        0 min,  0.000 sec
 * total energy  :    -7.9753179 Eh     change       -0.4223868E-04 Eh
   gradient norm :     0.0026511 Eh/α   predicted    -0.2007653E-04 ( -52.47%)
   displ. norm   :     0.0984793 α      lambda       -0.3555396E-04
   maximum displ.:     0.0746436 α      in ANC's #5, #3, #4, ...

........................................................................
.............................. CYCLE   30 ..............................
........................................................................
   1     -8.1398691 -0.813987E+01  0.137E-01    1.26       0.0  T
   2     -8.1398691  0.593839E-07  0.893E-02    1.26       1.0  T
   3     -8.1398532  0.158805E-04  0.442E-02    1.26       1.0  T
   4     -8.1398685 -0.152940E-04  0.135E-02    1.26       2.6  T
   5     -8.1398694 -0.930153E-06  0.618E-03    1.26       5.7  T
   6     -8.1398695 -0.632285E-07  0.205E-03    1.26      17.3  T
   7     -8.1398695 -0.150265E-07  0.119E-03    1.26      29.8  T
   8     -8.1398695 -0.312394E-08  0.733E-04    1.26      48.3  T
   9     -8.1398695 -0.136788E-08  0.247E-04    1.26     143.2  T
     SCC iter.                  ...        0 min,  0.001 sec
     gradient                   ...        0 min,  0.001 sec
 * total energy  :    -7.9753446 Eh     change       -0.2665403E-04 Eh
   gradient norm :     0.0018948 Eh/α   predicted    -0.1794895E-04 ( -32.66%)
   displ. norm   :     0.2058830 α      lambda       -0.3247015E-04
   maximum displ.:     0.1459284 α      in ANC's #5, #3, #2, ...

........................................................................
.............................. CYCLE   31 ..............................
........................................................................
   1     -8.1389660 -0.813897E+01  0.358E-01    1.26       0.0  T
   2     -8.1389641  0.186966E-05  0.232E-01    1.26       1.0  T
   3     -8.1387853  0.178831E-03  0.145E-01    1.27       1.0  T
   4     -8.1389649 -0.179588E-03  0.282E-02    1.26       1.3  T
   5     -8.1389672 -0.228122E-05  0.154E-02    1.26       2.3  T
   6     -8.1389682 -0.102121E-05  0.314E-03    1.26      11.3  T
   7     -8.1389682 -0.373309E-07  0.171E-03    1.26      20.6  T
   8     -8.1389682 -0.417487E-08  0.124E-03    1.26      28.4  T
   9     -8.1389682 -0.323390E-08  0.410E-04    1.26      86.2  T
  10     -8.1389682 -0.369656E-09  0.125E-04    1.26     283.4  T
     SCC iter.                  ...        0 min,  0.001 sec
     gradient                   ...        0 min,  0.000 sec
 * total energy  :    -7.9753688 Eh     change       -0.2423758E-04 Eh
   gradient norm :     0.0039758 Eh/α   predicted    -0.1654177E-04 ( -31.75%)
   displ. norm   :     0.0626973 α      lambda       -0.2757435E-04
   maximum displ.:     0.0470729 α      in ANC's #5, #3, #6, ...

........................................................................
.............................. CYCLE   32 ..............................
........................................................................
   1     -8.1398133 -0.813981E+01  0.117E-01    1.26       0.0  T
   2     -8.1398121  0.123462E-05  0.784E-02    1.26       1.0  T
   3     -8.1397420  0.700731E-04  0.899E-02    1.27       1.0  T
   4     -8.1398138 -0.717943E-04  0.565E-03    1.26       6.3  T
   5     -8.1398138  0.504993E-07  0.346E-03    1.26      10.2  T
   6     -8.1398139 -0.957784E-07  0.467E-04    1.26      75.7  T
   7     -8.1398139 -0.298721E-09  0.316E-04    1.26     111.7  T
     SCC iter.                  ...        0 min,  0.001 sec
     gradient                   ...        0 min,  0.001 sec
 * total energy  :    -7.9753874 Eh     change       -0.1858350E-04 Eh
   gradient norm :     0.0019332 Eh/α   predicted    -0.1384103E-04 ( -25.52%)
   displ. norm   :     0.1477772 α      lambda       -0.2060042E-04
   maximum displ.:     0.1117093 α      in ANC's #5, #3, #1, ...

........................................................................
.............................. CYCLE   33 ..............................
........................................................................
   1     -8.1398614 -0.813986E+01  0.184E-01    1.26       0.0  T
   2     -8.1398552  0.619935E-05  0.121E-01    1.25       1.0  T
   3     -8.1396295  0.225719E-03  0.160E-01    1.27       1.0  T
   4     -8.1398634 -0.233897E-03  0.123E-02    1.26       2.9  T
   5     -8.1398632  0.169835E-06  0.832E-03    1.26       4.2  T
   6     -8.1398635 -0.264639E-06  0.251E-03    1.26      14.1  T
   7     -8.1398635 -0.114732E-07  0.170E-03    1.26      20.8  T
   8     -8.1398635 -0.133900E-07  0.881E-04    1.26      40.1  T
   9     -8.1398635 -0.109063E-08  0.305E-04    1.26     115.8  T
     SCC iter.                  ...        0 min,  0.001 sec
     gradient                   ...        0 min,  0.000 sec
 * total energy  :    -7.9754096 Eh     change       -0.2221200E-04 Eh
   gradient norm :     0.0008112 Eh/α   predicted    -0.1039806E-04 ( -53.19%)
   displ. norm   :     0.1719867 α      lambda       -0.1632270E-04
   maximum displ.:     0.1306876 α      in ANC's #5, #3, #2, ...

........................................................................
.............................. CYCLE   34 ..............................
........................................................................
   1     -8.1390877 -0.813909E+01  0.197E-01    1.26       0.0  T
   2     -8.1390843  0.330532E-05  0.124E-01    1.25       1.0  T
   3     -8.1389267  0.157660E-03  0.129E-01    1.27       1.0  T
   4     -8.1390885 -0.161775E-03  0.127E-02    1.25       2.8  T
   5     -8.1390887 -0.280838E-06  0.852E-03    1.25       4.1  T
   6     -8.1390889 -0.149780E-06  0.241E-03    1.25      14.7  T
   7     -8.1390889 -0.343625E-07  0.917E-04    1.25      38.6  T
   8     -8.1390889 -0.197115E-08  0.528E-04    1.25      66.9  T
     SCC iter.                  ...        0 min,  0.001 sec
     gradient                   ...        0 min,  0.000 sec
 * total energy  :    -7.9754185 Eh     change       -0.8908773E-05 Eh
   gradient norm :     0.0032322 Eh/α   predicted    -0.8267307E-05 (  -7.20%)
   displ. norm   :     0.0162460 α      lambda       -0.1185691E-04
   maximum displ.:     0.0109833 α      in ANC's #6, #2, #3, ...

........................................................................
.............................. CYCLE   35 ..............................
........................................................................
   1     -8.1396840 -0.813968E+01  0.877E-02    1.26       0.0  T
   2     -8.1396841 -0.523594E-07  0.574E-02    1.26       1.0  T
   3     -8.1396836  0.424061E-06  0.856E-03    1.25       4.1  T
   4     -8.1396840 -0.366245E-06  0.496E-03    1.26       7.1  T
   5     -8.1396840  0.237858E-07  0.419E-03    1.25       8.4  T
   6     -8.1396841 -0.133933E-06  0.686E-04    1.26      51.5  T
   7     -8.1396841 -0.425693E-08  0.182E-04    1.26     194.0  T
     SCC iter.                  ...        0 min,  0.001 sec
     gradient                   ...        0 min,  0.001 sec
 * total energy  :    -7.9754262 Eh     change       -0.7624310E-05 Eh
   gradient norm :     0.0015746 Eh/α   predicted    -0.5930203E-05 ( -22.22%)
   displ. norm   :     0.0640463 α      lambda       -0.5443333E-05
   maximum displ.:     0.0476676 α      in ANC's #5, #3, #1, ...

........................................................................
.............................. CYCLE   36 ..............................
........................................................................
   1     -8.1398369 -0.813984E+01  0.986E-02    1.25       0.0  T
   2     -8.1398370 -0.462749E-07  0.624E-02    1.25       1.0  T
   3     -8.1398359  0.109664E-05  0.135E-02    1.25       2.6  T
   4     -8.1398371 -0.117743E-05  0.519E-03    1.25       6.8  T
   5     -8.1398369  0.112585E-06  0.370E-03    1.26       9.6  T
   6     -8.1398370 -0.102092E-06  0.230E-03    1.25      15.4  T
   7     -8.1398371 -0.271416E-07  0.130E-03    1.25      27.1  T
   8     -8.1398371 -0.253503E-08  0.723E-04    1.25      48.9  T
   9     -8.1398371 -0.194362E-08  0.137E-04    1.25     258.9  T
     SCC iter.                  ...        0 min,  0.002 sec
     gradient                   ...        0 min,  0.001 sec
 * total energy  :    -7.9754320 Eh     change       -0.5879239E-05 Eh
   gradient norm :     0.0008857 Eh/α   predicted    -0.2725720E-05 ( -53.64%)
   displ. norm   :     0.1469013 α      lambda       -0.8748450E-05
   maximum displ.:     0.1081680 α      in ANC's #5, #3, #1, ...

........................................................................
.............................. CYCLE   37 ..............................
........................................................................
   1     -8.1394522 -0.813945E+01  0.179E-01    1.25       0.0  T
   2     -8.1394523 -0.719200E-07  0.109E-01    1.25       1.0  T
   3     -8.1394485  0.382637E-05  0.261E-02    1.25       1.4  T
   4     -8.1394523 -0.380319E-05  0.773E-03    1.25       4.6  T
   5     -8.1394511  0.116374E-05  0.169E-02    1.25       2.1  T
   6     -8.1394526 -0.145811E-05  0.320E-03    1.25      11.1  T
   7     -8.1394526 -0.389862E-08  0.222E-03    1.25      15.9  T
   8     -8.1394526 -0.153285E-07  0.958E-04    1.25      36.9  T
   9     -8.1394526 -0.187407E-08  0.243E-04    1.25     145.5  T
     SCC iter.                  ...        0 min,  0.001 sec
[...]
   maximum displ.:     0.0383226 α      in ANC's #5, #2, #1, ...

........................................................................
.............................. CYCLE   60 ..............................
........................................................................
   1     -8.1398856 -0.813989E+01  0.113E-01    1.25       0.0  T
   2     -8.1398855  0.674828E-07  0.736E-02    1.25       1.0  T
   3     -8.1398758  0.975188E-05  0.316E-02    1.25       1.1  T
   4     -8.1398844 -0.855785E-05  0.158E-02    1.25       2.2  T
   5     -8.1398856 -0.125766E-05  0.805E-03    1.25       4.4  T
   6     -8.1398858 -0.169601E-06  0.201E-03    1.25      17.6  T
   7     -8.1398858 -0.117725E-07  0.100E-03    1.25      35.2  T
   8     -8.1398858 -0.195662E-08  0.594E-04    1.25      59.5  T
   9     -8.1398858 -0.756373E-09  0.117E-04    1.25     302.3  T
     SCC iter.                  ...        0 min,  0.002 sec
     gradient                   ...        0 min,  0.001 sec
 * total energy  :    -7.9756756 Eh     change       -0.8637552E-05 Eh
   gradient norm :     0.0006524 Eh/α   predicted    -0.7548424E-05 ( -12.61%)
   displ. norm   :     0.1559359 α      lambda       -0.6819773E-05
   maximum displ.:     0.1071381 α      in ANC's #2, #1, #3, ...

........................................................................
.............................. CYCLE   61 ..............................
........................................................................
   1     -8.1393283 -0.813933E+01  0.278E-01    1.25       0.0  T
   2     -8.1393274  0.963368E-06  0.184E-01    1.25       1.0  T
   3     -8.1392261  0.101210E-03  0.995E-02    1.26       1.0  T
   4     -8.1393209 -0.947527E-04  0.414E-02    1.25       1.0  T
   5     -8.1393282 -0.725502E-05  0.230E-02    1.25       1.5  T
   6     -8.1393298 -0.161226E-05  0.432E-03    1.25       8.2  T
   7     -8.1393298 -0.127581E-07  0.279E-03    1.25      12.7  T
   8     -8.1393298 -0.209338E-07  0.159E-03    1.25      22.3  T
   9     -8.1393298 -0.428318E-08  0.445E-04    1.25      79.4  T
  10     -8.1393298 -0.323439E-09  0.142E-04    1.25     248.5  T
     SCC iter.                  ...        0 min,  0.002 sec
     gradient                   ...        0 min,  0.001 sec
 * total energy  :    -7.9756827 Eh     change       -0.7084098E-05 Eh
   gradient norm :     0.0017493 Eh/α   predicted    -0.3445544E-05 ( -51.36%)
   displ. norm   :     0.2155626 α      lambda       -0.9590713E-05
   maximum displ.:     0.1457691 α      in ANC's #2, #1, #3, ...

........................................................................
.............................. CYCLE   62 ..............................
........................................................................
   1     -8.1390430 -0.813904E+01  0.389E-01    1.26       0.0  T
   2     -8.1390422  0.755215E-06  0.257E-01    1.26       1.0  T
   3     -8.1389107  0.131543E-03  0.114E-01    1.27       1.0  T
   4     -8.1390296 -0.118891E-03  0.560E-02    1.25       1.0  T
   5     -8.1390433 -0.137733E-04  0.293E-02    1.26       1.2  T
   6     -8.1390457 -0.231017E-05  0.602E-03    1.26       5.9  T
   7     -8.1390457 -0.153578E-07  0.401E-03    1.26       8.8  T
   8     -8.1390457 -0.464906E-07  0.220E-03    1.26      16.1  T
   9     -8.1390457 -0.864475E-08  0.690E-04    1.26      51.2  T
  10     -8.1390457 -0.962135E-09  0.201E-04    1.26     175.9  T
     SCC iter.                  ...        0 min,  0.004 sec
     gradient                   ...        0 min,  0.001 sec
 * total energy  :    -7.9756900 Eh     change       -0.7303234E-05 Eh
   gradient norm :     0.0021171 Eh/α   predicted    -0.4894941E-05 ( -32.98%)
   displ. norm   :     0.0312348 α      lambda       -0.7317625E-05
   maximum displ.:     0.0210415 α      in ANC's #1, #2, #5, ...

........................................................................
.............................. CYCLE   63 ..............................
........................................................................
   1     -8.1398670 -0.813987E+01  0.802E-02    1.26       0.0  T
   2     -8.1398671 -0.535388E-07  0.555E-02    1.26       1.0  T
   3     -8.1398625  0.455301E-05  0.241E-02    1.26       1.5  T
   4     -8.1398664 -0.384253E-05  0.109E-02    1.26       3.3  T
   5     -8.1398672 -0.851687E-06  0.367E-03    1.26       9.6  T
   6     -8.1398672 -0.812244E-09  0.182E-03    1.26      19.4  T
   7     -8.1398672 -0.127224E-07  0.825E-04    1.26      42.8  T
   8     -8.1398672 -0.575652E-09  0.506E-04    1.26      69.9  T
     SCC iter.                  ...        0 min,  0.001 sec
     gradient                   ...        0 min,  0.000 sec
 * total energy  :    -7.9756946 Eh     change       -0.4619860E-05 Eh
   gradient norm :     0.0005753 Eh/α   predicted    -0.3663516E-05 ( -20.70%)
   displ. norm   :     0.1325482 α      lambda       -0.3480864E-05
   maximum displ.:     0.0873528 α      in ANC's #1, #2, #3, ...

   *** GEOMETRY OPTIMIZATION CONVERGED AFTER 63 ITERATIONS ***

------------------------------------------------------------------------
 total energy gain   :        -0.5546416 Eh     -348.0429 kcal/mol
 total RMSD          :         2.1331688 a0        1.1288 Å
 total power (kW/mol):       -23.1144657 (step)-8943.6959 (real)
------------------------------------------------------------------------

 ANCopt (total)                0 d,  0 h,  0 min,  0.163 sec
 optimizer setup                ...        0 min,  0.000 sec (  0.017%)
 model hessian                  ...        0 min,  0.000 sec (  0.247%)
 ANC generation                 ...        0 min,  0.000 sec (  0.130%)
 coordinate transformation      ...        0 min,  0.000 sec (  0.087%)
 single point calculation       ...        0 min,  0.156 sec ( 95.817%)
 optimization log               ...        0 min,  0.002 sec (  1.088%)
 hessian update                 ...        0 min,  0.002 sec (  1.272%)
 rational function              ...        0 min,  0.001 sec (  0.642%)

================
 final structure:
================
8
 xtb: 6.5.1 (conda-forge)
Be           0.63788632044851        0.32616087747149        0.02671982057499
B            1.66666819923785       -0.41897704974642        1.22901236115621
C            2.95804680515246       -0.16346378204902        1.97727314755176
C            1.88491852308932       -0.43476390815146        2.72741983503333
H            4.00120818324740        0.05274582691597        2.12622143795734
H            4.01593964432637        1.24773175600972        5.28549559658073
H            3.53717508873599        1.56006085326637        4.75792897191839
H            1.64815723576038       -0.54149457371778        3.77092882922745

 Bond Distances (Angstroems)
 ---------------------------
Be1-B2=1.7490        B2-Be1=1.7490        B2-C3=1.5142         B2-C4=1.5143         C3-B2=1.5142         C3-C4=1.3371         
C3-H5=1.0757         C4-B2=1.5143         C4-C3=1.3371         C4-H8=1.0753         H5-C3=1.0757         H6-H7=0.7779         
H7-H6=0.7779         H8-C4=1.0753         
 H  H  Rav=0.7779 sigma=0.0000  Rmin=0.7779  Rmax=0.7779     1
 B  Be Rav=1.7490 sigma=0.0000  Rmin=1.7490  Rmax=1.7490     1
 C  H  Rav=1.0755 sigma=0.0002  Rmin=1.0753  Rmax=1.0757     2
 C  B  Rav=1.5143 sigma=0.0000  Rmin=1.5142  Rmax=1.5143     2
 C  C  Rav=1.3371 sigma=0.0000  Rmin=1.3371  Rmax=1.3371     1

 selected bond angles (degree)
 --------------------
C3-B2-Be1=140.30               C4-B2-Be1=140.30               C4-B2-C3= 52.40                C4-C3-B2= 63.80                
H5-C3-B2=158.34                H5-C3-C4=137.85                C3-C4-B2= 63.80                H8-C4-B2=158.36                
H8-C4-C3=137.84                

 selected dihedral angles (degree)
 ---------------------------------
C4-C3-B2-Be1=126.35           H5-C3-B2-Be1=304.97           H5-C3-B2-C4=178.63            C3-C4-B2-Be1=233.65           
H8-C4-B2-Be1= 54.93           H8-C4-B2-C3=181.29            B2-C4-C3-H5=180.76            H8-C4-C3-B2=179.29            
H8-C4-C3-H5=  0.05            

 CMA Distance (Angstroems)
 ---------------------------
R(CMA):  2.8030
           -------------------------------------------------
          |                Final Singlepoint                |
           -------------------------------------------------

          ...................................................
          :                      SETUP                      :
          :.................................................:
          :  # basis functions                  20          :
          :  # atomic orbitals                  20          :
          :  # shells                           12          :
          :  # electrons                        17          :
          :  max. iterations                   250          :
          :  Hamiltonian                  GFN2-xTB          :
          :  restarted?                      false          :
          :  GBSA solvation                  false          :
          :  PC potential                    false          :
          :  electronic temp.          300.0000000     K    :
          :  accuracy                    1.0000000          :
          :  -> integral cutoff          0.2500000E+02      :
          :  -> integral neglect         0.1000000E-07      :
          :  -> SCF convergence          0.1000000E-05 Eh   :
          :  -> wf. convergence          0.1000000E-03 e    :
          :  Broyden damping             0.4000000          :
          ...................................................

 iter      E             dE          RMSdq      gap      omega  full diag
   1     -8.1398672 -0.813987E+01  0.157E-04    1.26       0.0  T
   2     -8.1398672  0.267008E-09  0.179E-04    1.26     197.5  T
   3     -8.1398672 -0.278359E-09  0.122E-04    1.26     290.0  T

   *** convergence criteria satisfied after 3 iterations ***

         #    Occupation            Energy/Eh            Energy/eV
      -------------------------------------------------------------
         1        2.0000           -0.5568331             -15.1522
       ...           ...                  ...                  ...
         3        2.0000           -0.4596566             -12.5079
         4        2.0000           -0.4535285             -12.3411
         5        2.0000           -0.3862253             -10.5097
         6        2.0000           -0.3794928             -10.3265
         7        2.0000           -0.3283943              -8.9361
         8        2.0000           -0.3194796              -8.6935
         9        1.0000           -0.2154546              -5.8628 (HOMO)
        10                         -0.1691482              -4.6028 (LUMO)
        11                         -0.1609684              -4.3802
        12                         -0.1327763              -3.6130
        13                         -0.0646278              -1.7586
        14                          0.0834200               2.2700
       ...                                ...                  ...
        20                          0.7522942              20.4710
      -------------------------------------------------------------
                  HL-Gap            0.0463065 Eh            1.2601 eV
             Fermi-level           -0.2298843 Eh           -6.2555 eV

 SCC (total)                   0 d,  0 h,  0 min,  0.001 sec
 SCC setup                      ...        0 min,  0.000 sec (  3.774%)
 Dispersion                     ...        0 min,  0.000 sec (  5.018%)
 classical contributions        ...        0 min,  0.000 sec (  3.774%)
 integral evaluation            ...        0 min,  0.000 sec (  9.093%)
 iterations                     ...        0 min,  0.000 sec ( 25.735%)
 molecular gradient             ...        0 min,  0.000 sec ( 42.805%)
 printout                       ...        0 min,  0.000 sec (  8.921%)

         :::::::::::::::::::::::::::::::::::::::::::::::::::::
         ::                     SUMMARY                     ::
         :::::::::::::::::::::::::::::::::::::::::::::::::::::
         :: total energy              -7.975694610326 Eh    ::
         :: gradient norm              0.000578269549 Eh/a0 ::
         :: HOMO-LUMO gap              1.260062928729 eV    ::
         ::.................................................::
         :: SCC energy                -8.139867218676 Eh    ::
         :: -> isotropic ES           -0.002360603277 Eh    ::
         :: -> anisotropic ES          0.006608779302 Eh    ::
         :: -> anisotropic XC          0.007460624517 Eh    ::
         :: -> dispersion             -0.003200864547 Eh    ::
         :: repulsion energy           0.164173395561 Eh    ::
         :: add. restraining           0.000000000000 Eh    ::
         :: total charge              -0.000000000000 e     ::
         :::::::::::::::::::::::::::::::::::::::::::::::::::::

           -------------------------------------------------
          |                Property Printout                |
           -------------------------------------------------

    * Orbital Energies and Occupations

         #    Occupation            Energy/Eh            Energy/eV
      -------------------------------------------------------------
         1        2.0000           -0.5568331             -15.1522
         2        2.0000           -0.4905871             -13.3496
         3        2.0000           -0.4596566             -12.5079
         4        2.0000           -0.4535285             -12.3411
         5        2.0000           -0.3862253             -10.5097
         6        2.0000           -0.3794928             -10.3265
         7        2.0000           -0.3283943              -8.9361
         8        2.0000           -0.3194796              -8.6935
         9        1.0000           -0.2154546              -5.8628 (HOMO)
        10                         -0.1691482              -4.6028 (LUMO)
        11                         -0.1609684              -4.3802
        12                         -0.1327763              -3.6130
        13                         -0.0646278              -1.7586
        14                          0.0834200               2.2700
        15                          0.1341897               3.6515
        16                          0.2276899               6.1958
        17                          0.2331537               6.3444
        18                          0.6182641              16.8238
        19                          0.6303662              17.1531
        20                          0.7522942              20.4710
      -------------------------------------------------------------
                  HL-Gap            0.0463065 Eh            1.2601 eV
             Fermi-level           -0.2298843 Eh           -6.2555 eV

     #   Z          covCN         q      C6AA      α(0)
     1   4 Be       0.907     0.264    72.220    25.489
     2   5 B        2.716     0.010    21.439     7.762
     3   6 C        2.811    -0.113    30.840     9.099
     4   6 C        2.811    -0.113    30.841     9.099
     5   1 H        0.926    -0.024     3.518     2.933
     6   1 H        0.810    -0.004     3.179     2.800
     7   1 H        0.810     0.004     3.043     2.739
     8   1 H        0.926    -0.024     3.515     2.932

 Mol. C6AA /au·bohr⁶  :        920.455093
 Mol. C8AA /au·bohr⁸  :      26859.425958
 Mol. α(0) /au        :         62.851055


Wiberg/Mayer (AO) data.
largest (>0.10) Wiberg bond orders for each atom

 ---------------------------------------------------------------------------
     #   Z sym  total        # sym  WBO       # sym  WBO       # sym  WBO
 ---------------------------------------------------------------------------
     1   4 Be   1.056 --     2 B    0.984
     2   5 B    3.157 --     3 C    1.064     4 C    1.063     1 Be   0.984
     3   6 C    3.852 --     4 C    1.784     2 B    1.064     5 H    0.964
     4   6 C    3.852 --     3 C    1.784     2 B    1.063     8 H    0.964
     5   1 H    0.999 --     3 C    0.964
     6   1 H    1.000 --     7 H    0.999
     7   1 H    1.000 --     6 H    0.999
     8   1 H    0.999 --     4 C    0.964
 ---------------------------------------------------------------------------

Topologies differ in total number of bonds
Writing topology from bond orders to xtbtopo.mol

molecular dipole:
                 x           y           z       tot (Debye)
 q only:       -0.947       0.306      -1.243
   full:       -0.396       0.089      -0.534       1.705
molecular quadrupole (traceless):
                xx          xy          yy          xz          yz          zz
 q only:       -3.045       1.136       6.202      -8.536       1.155      -3.156
  q+dip:       -0.429       0.395      -0.402      -1.321      -0.291       0.832
   full:       -1.317       1.374       1.369      -2.663       1.617      -0.052

           -------------------------------------------------
          |                Geometry Summary                 |
           -------------------------------------------------

      molecular mass/u    :       47.8764459
   center of mass at/Å    :        1.9893300      -0.1344680       1.7984142
  moments of inertia/u·Å² :        0.2378611E+02   0.1012191E+03   0.1075947E+03
rotational constants/cm⁻¹ :        0.7087175E+00   0.1665459E+00   0.1566771E+00

 * 7 selected distances

     #   Z          #   Z                                           value/Å
     1   4 Be       2   5 B                                       1.7490371 (max)
     2   5 B        3   6 C                                       1.5142128
     2   5 B        4   6 C                                       1.5143011
     3   6 C        4   6 C                                       1.3371344
     3   6 C        5   1 H                                       1.0756942
     6   1 H        7   1 H                                       0.7778764 (min)
     4   6 C        8   1 H                                       1.0753411

 * 5 distinct bonds (by element types)

   Z      Z             #   av. dist./Å        max./Å        min./Å
   1 H    1 H           1     0.7778764     0.7778764     0.7778764
   4 Be   5 B           1     1.7490371     1.7490371     1.7490371
   1 H    6 C           2     1.0755177     1.0756942     1.0753411
   5 B    6 C           2     1.5142569     1.5143011     1.5142128
   6 C    6 C           1     1.3371344     1.3371344     1.3371344


optimized geometry written to: xtbopt.xyz


           -------------------------------------------------
          | TOTAL ENERGY               -7.975694610326 Eh   |
          | GRADIENT NORM               0.000578269549 Eh/α |
          | HOMO-LUMO GAP               1.260062928729 eV   |
           -------------------------------------------------
########################################################################
[WARNING] Runtime exception occurred
-3- restart_readRestart: Dimension missmatch in restart file.
-2- restart_readRestart: Multiplicity missmatch in restart file.
-1- restart_readRestart: Number of electron missmatch in restart file.
Note: The following floating-point exceptions are signalling: IEEE_UNDERFLOW_FLAG
normal termination of xtb
########################################################################

------------------------------------------------------------------------
 * finished run on 2025/06/07 at 03:27:47.890     
------------------------------------------------------------------------
 total:
 * wall-time:     0 d,  0 h,  0 min,  0.220 sec
 *  cpu-time:     0 d,  0 h,  0 min,  3.169 sec
 * ratio c/w:    14.387 speedup
 SCF:
 * wall-time:     0 d,  0 h,  0 min,  0.053 sec
 *  cpu-time:     0 d,  0 h,  0 min,  0.732 sec
 * ratio c/w:    13.892 speedup
 ANC optimizer:
 * wall-time:     0 d,  0 h,  0 min,  0.164 sec
 *  cpu-time:     0 d,  0 h,  0 min,  2.398 sec
 * ratio c/w:    14.587 speedup

