      -----------------------------------------------------------      
     |                   =====================                   |     
     |                           x T B                           |     
     |                   =====================                   |     
     |                         S. Grimme                         |     
     |          Mulliken Center for Theoretical Chemistry        |     
     |                    University of Bonn                     |     
      -----------------------------------------------------------      

   * xtb version 6.5.1 (conda-forge) compiled by 'runner@Mac-1657629245115.local' on 2022-07-12

   xtb is free software: you can redistribute it and/or modify it under
   the terms of the GNU Lesser General Public License as published by
   the Free Software Foundation, either version 3 of the License, or
   (at your option) any later version.
   
   xtb is distributed in the hope that it will be useful,
   but WITHOUT ANY WARRANTY; without even the implied warranty of
   MERCHANTABILITY or FITNESS FOR A PARTICULAR PURPOSE.  See the
   GNU Lesser General Public License for more details.
   
   Cite this work as:
   * C. Bannwarth, E. Caldeweyher, S. Ehlert, A. Hansen, P. Pracht,
     J. Seibert, S. Spicher, S. Grimme, WIREs Comput. Mol. Sci., 2020, 11,
     e01493. DOI: 10.1002/wcms.1493
   
   for GFN2-xTB:
   * C. Bannwarth, S. Ehlert and S. Grimme., J. Chem. Theory Comput., 2019,
     15, 1652-1671. DOI: 10.1021/acs.jctc.8b01176
   for GFN1-xTB:
   * S. Grimme, C. Bannwarth, P. Shushkov, J. Chem. Theory Comput., 2017,
     13, 1989-2009. DOI: 10.1021/acs.jctc.7b00118
   for GFN0-xTB:
   * P. Pracht, E. Caldeweyher, S. Ehlert, S. Grimme, ChemRxiv, 2019, preprint.
     DOI: 10.26434/chemrxiv.8326202.v1
   for GFN-FF:
   * S. Spicher and S. Grimme, Angew. Chem. Int. Ed., 2020, 59, 15665-15673.
     DOI: 10.1002/anie.202004239
   
   for ALPB and GBSA implicit solvation:
   * S. Ehlert, M. Stahn, S. Spicher, S. Grimme, J. Chem. Theory Comput.,
     2021, 17, 4250-4261. DOI: 10.1021/acs.jctc.1c00471
   
   for DFT-D4:
   * E. Caldeweyher, C. Bannwarth and S. Grimme, J. Chem. Phys., 2017,
     147, 034112. DOI: 10.1063/1.4993215
   * E. Caldeweyher, S. Ehlert, A. Hansen, H. Neugebauer, S. Spicher,
     C. Bannwarth and S. Grimme, J. Chem. Phys., 2019, 150, 154122.
     DOI: 10.1063/1.5090222
   * E. Caldeweyher, J.-M. Mewes, S. Ehlert and S. Grimme, Phys. Chem. Chem. Phys.
     2020, 22, 8499-8512. DOI: 10.1039/D0CP00502A
   
   for sTDA-xTB:
   * S. Grimme and C. Bannwarth, J. Chem. Phys., 2016, 145, 054103.
     DOI: 10.1063/1.4959605
   
   in the mass-spec context:
   * V. Asgeirsson, C. Bauer and S. Grimme, Chem. Sci., 2017, 8, 4879.
     DOI: 10.1039/c7sc00601b
   * J. Koopman and S. Grimme, ACS Omega 2019, 4, 12, 15120-15133.
     DOI: 10.1021/acsomega.9b02011
   
   for metadynamics refer to:
   * S. Grimme, J. Chem. Theory Comput., 2019, 155, 2847-2862
     DOI: 10.1021/acs.jctc.9b00143
   
   for SPH calculations refer to:
   * S. Spicher and S. Grimme, J. Chem. Theory Comput., 2021, 17, 1701-1714
     DOI: 10.1021/acs.jctc.0c01306
   
   with help from (in alphabetical order)
   P. Atkinson, C. Bannwarth, F. Bohle, G. Brandenburg, E. Caldeweyher
   M. Checinski, S. Dohm, S. Ehlert, S. Ehrlich, I. Gerasimov, C. Hölzer
   A. Katbashev, J. Koopman, C. Lavigne, S. Lehtola, F. März, M. Müller,
   F. Musil, H. Neugebauer, J. Pisarek, C. Plett, P. Pracht, F. Pultar,
   J. Seibert, P. Shushkov, S. Spicher, M. Stahn, M. Steiner, T. Strunk,
   J. Stückrath, T. Rose, and J. Unsleber
   
 * started run on 2025/06/07 at 03:27:49.635     

           -------------------------------------------------
          |                Calculation Setup                |
           -------------------------------------------------

          program call               : xtb BBeC4H4.xyz --gfn 2 --opt
          coordinate file            : BBeC4H4.xyz
          omp threads                :                    16

   ID    Z sym.   atoms
    1    4 Be     1
    2    5 B      2
    3    6 C      3-6
    4    1 H      7-10

molecular fragmentation (1/2 indicates fragments):
1222222222
# atoms in fragment 1/2:     1     9
 fragment masses (1/2) :        9.01       62.89
CMA distance (Bohr)    :   7.968
constraining FC (au)   :  0.0500

           -------------------------------------------------
          |                 G F N 2 - x T B                 |
           -------------------------------------------------

        Reference                      10.1021/acs.jctc.8b01176
      * Hamiltonian:
        H0-scaling (s, p, d)           1.850000    2.230000    2.230000
        zeta-weighting                 0.500000
      * Dispersion:
        s8                             2.700000
        a1                             0.520000
        a2                             5.000000
        s9                             5.000000
      * Repulsion:
        kExp                           1.500000    1.000000
        rExp                           1.000000
      * Coulomb:
        alpha                          2.000000
        third order                    shell-resolved
        anisotropic                    true
        a3                             3.000000
        a5                             4.000000
        cn-shift                       1.200000
        cn-exp                         4.000000
        max-rad                        5.000000


          ...................................................
          :                      SETUP                      :
          :.................................................:
          :  # basis functions                  28          :
          :  # atomic orbitals                  28          :
          :  # shells                           16          :
          :  # electrons                        25          :
          :  max. iterations                   250          :
          :  Hamiltonian                  GFN2-xTB          :
          :  restarted?                      false          :
          :  GBSA solvation                  false          :
          :  PC potential                    false          :
          :  electronic temp.          300.0000000     K    :
          :  accuracy                    1.0000000          :
          :  -> integral cutoff          0.2500000E+02      :
          :  -> integral neglect         0.1000000E-07      :
          :  -> SCF convergence          0.1000000E-05 Eh   :
          :  -> wf. convergence          0.1000000E-03 e    :
          :  Broyden damping             0.4000000          :
          ...................................................

 iter      E             dE          RMSdq      gap      omega  full diag
   1     11.2214936  0.112215E+02  0.236E+01    0.18       0.0  T
   2     -8.2531680 -0.194747E+02  0.163E+01    0.93       1.0  T
   3     -7.1357142  0.111745E+01  0.153E+01    0.07       1.0  T
   4     -8.8051716 -0.166946E+01  0.109E+01    0.70       1.0  T
   5     -9.2905408 -0.485369E+00  0.877E+00    0.48       1.0  T
   6     -7.1641554  0.212639E+01  0.153E+01    0.18       1.0  T
   7     -9.9811681 -0.281701E+01  0.990E+00    0.50       1.0  T
   8     -9.8728046  0.108363E+00  0.101E+01    0.39       1.0  T
   9     -9.5759415  0.296863E+00  0.106E+01    0.10       1.0  T
  10     -8.0177924  0.155815E+01  0.123E+01    0.50       1.0  T
  11     -7.3644256  0.653367E+00  0.143E+01    0.38       1.0  T
  12     11.8247164  0.191891E+02  0.266E+01    0.56       1.0  T
  13    -10.3748834 -0.221996E+02  0.118E+01    0.33       1.0  T
  14    -10.0169203  0.357963E+00  0.152E+01    0.17       1.0  T
  15    -10.3678515 -0.350931E+00  0.138E+01    0.35       1.0  T
  16    -10.0444007  0.323451E+00  0.154E+01    0.16       1.0  T
  17     -9.3257193  0.718681E+00  0.171E+01    0.17       1.0  T
  18      5.9804321  0.153062E+02  0.255E+01    0.72       1.0  T
  19      8.1216400  0.214121E+01  0.271E+01    0.75       1.0  T
  20     -6.2186719 -0.143403E+02  0.175E+01    0.28       1.0  T
  21     -3.9108038  0.230787E+01  0.182E+01    0.31       1.0  T
  22     -2.0002551  0.191055E+01  0.189E+01    0.35       1.0  T
  23     -7.7866720 -0.578642E+01  0.166E+01    0.20       1.0  T
  24     -1.6372418  0.614943E+01  0.181E+01    0.27       1.0  T
  25     -9.8028779 -0.816564E+01  0.126E+01    0.18       1.0  T
  26     -9.5156033  0.287275E+00  0.127E+01    0.22       1.0  T
  27     -9.4866209  0.289823E-01  0.119E+01    0.32       1.0  T
  28    -11.0958378 -0.160922E+01  0.462E+00    0.46       1.0  T
  29     -9.9613631  0.113447E+01  0.107E+01    0.32       1.0  T
  30    -10.3444163 -0.383053E+00  0.989E+00    0.29       1.0  T
  31    -10.1426589  0.201757E+00  0.102E+01    0.33       1.0  T
  32    -10.1512041 -0.854524E-02  0.102E+01    0.33       1.0  T
  33    -11.1988248 -0.104762E+01  0.301E+00    0.36       1.0  T
  34    -11.1954866  0.333816E-02  0.492E+00    0.19       1.0  T
  35    -11.2401034 -0.446168E-01  0.450E+00    0.18       1.0  T
  36    -11.2528688 -0.127654E-01  0.436E+00    0.17       1.0  T
  37    -11.2158320  0.370369E-01  0.471E+00    0.18       1.0  T
  38    -11.3284674 -0.112635E+00  0.232E+00    0.16       1.0  T
  39    -11.2528043  0.756631E-01  0.254E+00    0.26       1.0  T
  40    -11.3287872 -0.759829E-01  0.227E+00    0.16       1.0  T
  41    -11.3490425 -0.202552E-01  0.220E+00    0.14       1.0  T
  42    -11.2197132  0.129329E+00  0.424E+00    0.17       1.0  T
  43    -11.1390637  0.806495E-01  0.491E+00    0.21       1.0  T
  44    -11.1468961 -0.783231E-02  0.476E+00    0.20       1.0  T
  45    -10.6376698  0.509226E+00  0.764E+00    0.29       1.0  T
  46    -10.5626106  0.750592E-01  0.803E+00    0.30       1.0  T
  47    -10.5691069 -0.649630E-02  0.798E+00    0.30       1.0  T
  48    -11.0307218 -0.461615E+00  0.554E+00    0.23       1.0  T
  49    -11.0364215 -0.569972E-02  0.547E+00    0.23       1.0  T
  50    -11.3646052 -0.328184E+00  0.197E+00    0.11       1.0  T
  51    -11.3567850  0.782021E-02  0.195E+00    0.12       1.0  T
  52    -11.3119322  0.448528E-01  0.293E+00    0.12       1.0  T
  53    -11.2928455  0.190867E-01  0.315E+00    0.13       1.0  T
  54    -11.1502449  0.142601E+00  0.446E+00    0.19       1.0  T
  55    -11.2320705 -0.818255E-01  0.374E+00    0.16       1.0  T
  56    -11.1700584  0.620121E-01  0.429E+00    0.18       1.0  T
  57    -11.1982312 -0.281728E-01  0.405E+00    0.17       1.0  T
  58    -11.2168750 -0.186439E-01  0.388E+00    0.16       1.0  T
  59    -11.2243782 -0.750317E-02  0.380E+00    0.16       1.0  T
  60    -11.2343244 -0.994614E-02  0.369E+00    0.16       1.0  T
  61    -11.2304606  0.386374E-02  0.372E+00    0.16       1.0  T
  62    -11.2323633 -0.190268E-02  0.370E+00    0.16       1.0  T
  63    -11.2483751 -0.160118E-01  0.357E+00    0.15       1.0  T
  64    -11.2451006  0.327451E-02  0.361E+00    0.15       1.0  T
  65    -11.2545904 -0.948988E-02  0.354E+00    0.15       1.0  T
  66    -11.2500976  0.449283E-02  0.360E+00    0.15       1.0  T
  67    -11.2535090 -0.341135E-02  0.358E+00    0.15       1.0  T
  68    -11.2568781 -0.336910E-02  0.354E+00    0.15       1.0  T
  69    -11.2582112 -0.133317E-02  0.352E+00    0.15       1.0  T
  70    -11.2753504 -0.171391E-01  0.328E+00    0.14       1.0  T
  71    -11.2977563 -0.224059E-01  0.294E+00    0.13       1.0  T
  72    -11.3202335 -0.224772E-01  0.253E+00    0.13       1.0  T
  73    -11.3278253 -0.759181E-02  0.235E+00    0.13       1.0  T
  74    -11.3501651 -0.223398E-01  0.187E+00    0.12       1.0  T
  75    -11.3220367  0.281284E-01  0.230E+00    0.13       1.0  T
  76    -11.3630111 -0.409743E-01  0.149E+00    0.12       1.0  T
  77    -11.3443990  0.186120E-01  0.182E+00    0.12       1.0  T
  78    -11.3545879 -0.101889E-01  0.159E+00    0.12       1.0  T
  79    -11.3482860  0.630187E-02  0.162E+00    0.13       1.0  T
  80    -11.3466050  0.168108E-02  0.139E+00    0.13       1.0  T
  81    -11.3194822  0.271228E-01  0.163E+00    0.14       1.0  T
  82    -11.3236209 -0.413866E-02  0.157E+00    0.14       1.0  T
  83    -11.3269621 -0.334121E-02  0.154E+00    0.14       1.0  T
  84    -11.3144643  0.124978E-01  0.161E+00    0.15       1.0  T
  85    -11.3144796 -0.152554E-04  0.170E+00    0.15       1.0  T
  86    -11.3106519  0.382763E-02  0.174E+00    0.15       1.0  T
  87    -11.3131473 -0.249537E-02  0.174E+00    0.15       1.0  T
  88    -11.3362528 -0.231055E-01  0.109E+00    0.15       1.0  T
  89    -11.3451849 -0.893210E-02  0.948E-01    0.15       1.0  T
  90    -11.3640479 -0.188630E-01  0.915E-01    0.15       1.0  T
  91    -11.3669198 -0.287193E-02  0.965E-01    0.15       1.0  T
  92    -11.3635853  0.333447E-02  0.102E+00    0.15       1.0  T
  93    -11.3604636  0.312172E-02  0.103E+00    0.15       1.0  T
  94    -11.3632632 -0.279958E-02  0.109E+00    0.15       1.0  T
  95    -11.3663725 -0.310926E-02  0.116E+00    0.15       1.0  T
  96    -11.3680718 -0.169930E-02  0.119E+00    0.15       1.0  T
  97    -11.3689535 -0.881703E-03  0.114E+00    0.15       1.0  T
  98    -11.3668753  0.207817E-02  0.962E-01    0.15       1.0  T
  99    -11.3671670 -0.291727E-03  0.937E-01    0.15       1.0  T
 100    -11.3697943 -0.262728E-02  0.882E-01    0.15       1.0  T
 101    -11.3694505  0.343779E-03  0.724E-01    0.15       1.0  T
 102    -11.3692940  0.156484E-03  0.634E-01    0.15       1.0  T
 103    -11.3692298  0.642219E-04  0.599E-01    0.15       1.0  T
 104    -11.3692233  0.653981E-05  0.594E-01    0.15       1.0  T
 105    -11.3692373 -0.140417E-04  0.600E-01    0.15       1.0  T
 106    -11.3692364  0.886027E-06  0.600E-01    0.15       1.0  T
 107    -11.3691648  0.716313E-04  0.583E-01    0.15       1.0  T
 108    -11.3690013  0.163481E-03  0.542E-01    0.15       1.0  T
 109    -11.3687554  0.245873E-03  0.489E-01    0.15       1.0  T
 110    -11.3684668  0.288600E-03  0.464E-01    0.15       1.0  T
 111    -11.3683137  0.153102E-03  0.484E-01    0.16       1.0  T
 112    -11.3685830 -0.269268E-03  0.508E-01    0.16       1.0  T
 113    -11.3695438 -0.960789E-03  0.487E-01    0.16       1.0  T
 114    -11.3706177 -0.107388E-02  0.380E-01    0.16       1.0  T
 115    -11.3706647 -0.469797E-04  0.296E-01    0.16       1.0  T
 116    -11.3706653 -0.628606E-06  0.288E-01    0.16       1.0  T
 117    -11.3706513  0.139787E-04  0.355E-01    0.16       1.0  T
 118    -11.3706862 -0.348508E-04  0.304E-01    0.16       1.0  T
 119    -11.3707134 -0.272824E-04  0.182E-01    0.16       1.0  T
 120    -11.3707194 -0.595452E-05  0.153E-01    0.16       1.0  T
 121    -11.3706771  0.422455E-04  0.127E-01    0.16       1.0  T
 122    -11.3707333 -0.561232E-04  0.537E-02    0.16       1.0  T
 123    -11.3706793  0.539403E-04  0.416E-02    0.16       1.0  T
 124    -11.3706527  0.266014E-04  0.431E-02    0.16       1.0  T
 125    -11.3706951 -0.423657E-04  0.309E-02    0.16       1.0  T
 126    -11.3707305 -0.353556E-04  0.254E-02    0.16       1.2  T
 127    -11.3707365 -0.602971E-05  0.235E-02    0.16       1.3  T
 128    -11.3707384 -0.189821E-05  0.208E-02    0.16       1.5  T
 129    -11.3707387 -0.296788E-06  0.165E-02    0.16       1.9  T
 130    -11.3707388 -0.764806E-07  0.116E-02    0.16       2.7  T
 131    -11.3707387  0.352657E-07  0.717E-03    0.16       4.4  T
 132    -11.3707388 -0.668191E-07  0.378E-03    0.16       8.4  T
 133    -11.3707388 -0.484798E-07  0.253E-03    0.16      12.5  T
 134    -11.3707388 -0.476360E-08  0.241E-03    0.16      13.1  T
 135    -11.3707389 -0.145068E-07  0.939E-04    0.16      33.7  T
 136    -11.3707389  0.642792E-10  0.582E-04    0.16      54.3  T

   *** convergence criteria satisfied after 136 iterations ***

         #    Occupation            Energy/Eh            Energy/eV
      -------------------------------------------------------------
         1        2.0000           -0.6374104             -17.3448
       ...           ...                  ...                  ...
         7        2.0000           -0.3919019             -10.6642
         8        2.0000           -0.3571230              -9.7178
         9        2.0000           -0.3366591              -9.1610
        10        2.0000           -0.3260533              -8.8724
        11        2.0000           -0.3165768              -8.6145
        12        1.9958           -0.2919940              -7.9456
        13        0.9581           -0.2816077              -7.6629 (HOMO)
        14        0.0461           -0.2758519              -7.5063 (LUMO)
        15                         -0.2629529              -7.1553
        16                         -0.2561084              -6.9691
        17                         -0.2477817              -6.7425
        18                         -0.2387047              -6.4955
       ...                                ...                  ...
        28                          0.4420017              12.0275
      -------------------------------------------------------------
                  HL-Gap            0.0057558 Eh            0.1566 eV
             Fermi-level           -0.2827659 Eh           -7.6945 eV

 SCC (total)                   0 d,  0 h,  0 min,  0.042 sec
 SCC setup                      ...        0 min,  0.000 sec (  0.151%)
 Dispersion                     ...        0 min,  0.000 sec (  0.286%)
 classical contributions        ...        0 min,  0.000 sec (  0.110%)
 integral evaluation            ...        0 min,  0.000 sec (  0.389%)
 iterations                     ...        0 min,  0.041 sec ( 97.482%)
 molecular gradient             ...        0 min,  0.001 sec (  1.263%)
 printout                       ...        0 min,  0.000 sec (  0.277%)

         :::::::::::::::::::::::::::::::::::::::::::::::::::::
         ::                     SUMMARY                     ::
         :::::::::::::::::::::::::::::::::::::::::::::::::::::
         :: total energy             -11.314316945377 Eh    ::
         :: gradient norm              0.316029949445 Eh/a0 ::
         :: HOMO-LUMO gap              0.156622399465 eV    ::
         ::.................................................::
         :: SCC energy               -11.370738851103 Eh    ::
         :: -> isotropic ES           -0.065618164525 Eh    ::
         :: -> anisotropic ES          0.013672065956 Eh    ::
         :: -> anisotropic XC         -0.008287987423 Eh    ::
         :: -> dispersion             -0.008177527014 Eh    ::
         :: repulsion energy           0.056411592616 Eh    ::
         :: add. restraining           0.000000000000 Eh    ::
         :: total charge              -0.000000000005 e     ::
         :::::::::::::::::::::::::::::::::::::::::::::::::::::

      ----------------------------------------------------------- 
     |                   =====================                   |
     |                        A N C O P T                        |
     |                   =====================                   |
     |               Approximate Normal Coordinate               |
     |                Rational Function Optimizer                |
      ----------------------------------------------------------- 

          ...................................................
          :                      SETUP                      :
          :.................................................:
          :   optimization level            normal          :
          :   max. optcycles                   200          :
          :   ANC micro-cycles                  20          :
          :   degrees of freedom                24          :
          :.................................................:
          :   RF solver                   davidson          :
          :   write xtbopt.log                true          :
          :   linear?                        false          :
          :   energy convergence         0.5000000E-05 Eh   :
          :   grad. convergence          0.1000000E-02 Eh/α :
          :   maximium RF displ.         1.0000000          :
          :   Hlow (freq-cutoff)         0.1000000E-01      :
          :   Hmax (freq-cutoff)         5.0000000          :
          :   S6 in model hess.         20.0000000          :
          ...................................................

generating ANC from model Hessian ...
Using Lindh-Hessian (1995)
 Shifting diagonal of input Hessian by    1.0051386976949930E-002
 Lowest  eigenvalues of input Hessian
    0.010000    0.000000    0.000000    0.000000    0.000000    0.000000
    0.000000    0.010182    0.010362    0.010612    0.010850    0.011163
    0.011635    0.012308    0.012659    0.013932    0.020413    0.027704
 Highest eigenvalues
    0.237290    0.247410    0.265131    0.276212    0.305893    0.338982


........................................................................
.............................. CYCLE    1 ..............................
........................................................................
   1    -11.3707389 -0.113707E+02  0.113E-04    0.16       0.0  T
   2    -11.3707388  0.690358E-07  0.220E-03    0.16      14.4  T
   3    -11.3707388 -0.419165E-07  0.140E-03    0.16      22.6  T
   4    -11.3707388  0.654069E-08  0.153E-03    0.16      20.6  T
   5    -11.3707388 -0.276140E-07  0.653E-04    0.16      48.4  T
   6    -11.3707389 -0.528691E-08  0.240E-04    0.16     131.9  T
     SCC iter.                  ...        0 min,  0.001 sec
     gradient                   ...        0 min,  0.000 sec
 * total energy  :   -11.3143169 Eh     change       -0.5758238E-10 Eh
   gradient norm :     0.3158644 Eh/α   predicted     0.0000000E+00 (-100.00%)
   displ. norm   :     0.8369487 α      lambda       -0.2560268E+00
   maximum displ.:     0.4835393 α      in ANC's #11, #17, #20, ...

........................................................................
.............................. CYCLE    2 ..............................
........................................................................
   1    -11.5512113 -0.115512E+02  0.199E+00    0.07       0.0  T
   2    -11.1322704  0.418941E+00  0.505E+00    0.52       1.0  T
   3    -10.9896853  0.142585E+00  0.617E+00    0.22       1.0  T
   4    -11.4950503 -0.505365E+00  0.245E+00    0.27       1.0  T
   5    -11.4318056  0.632447E-01  0.269E+00    0.25       1.0  T
   6    -11.4436968 -0.118912E-01  0.298E+00    0.27       1.0  T
   7    -11.4771917 -0.334949E-01  0.253E+00    0.33       1.0  T
   8    -11.4913320 -0.141403E-01  0.235E+00    0.26       1.0  T
   9    -11.5319548 -0.406228E-01  0.165E+00    0.20       1.0  T
  10    -11.5649111 -0.329563E-01  0.895E-01    0.15       1.0  T
  11    -11.5665021 -0.159102E-02  0.882E-01    0.15       1.0  T
  12    -11.5583248  0.817731E-02  0.109E+00    0.16       1.0  T
  13    -11.5567432  0.158159E-02  0.178E+00    0.10       1.0  T
  14    -11.5551904  0.155284E-02  0.184E+00    0.10       1.0  T
  15    -11.5711821 -0.159918E-01  0.611E-01    0.13       1.0  T
  16    -11.5622628  0.891934E-02  0.902E-01    0.16       1.0  T
  17    -11.5643512 -0.208841E-02  0.784E-01    0.15       1.0  T
  18    -11.5703004 -0.594920E-02  0.379E-01    0.13       1.0  T
  19    -11.5705885 -0.288102E-03  0.340E-01    0.13       1.0  T
  20    -11.5713037 -0.715205E-03  0.222E-01    0.13       1.0  T
  21    -11.5717108 -0.407075E-03  0.826E-02    0.13       1.0  T
  22    -11.5717891 -0.783452E-04  0.154E-02    0.13       2.1  T
  23    -11.5717888  0.294152E-06  0.111E-02    0.13       2.9  T
  24    -11.5717889 -0.389819E-07  0.923E-03    0.13       3.4  T
  25    -11.5717892 -0.353318E-06  0.636E-03    0.13       5.0  T
  26    -11.5717895 -0.286987E-06  0.346E-03    0.13       9.2  T
  27    -11.5717896 -0.889006E-07  0.197E-03    0.13      16.1  T
  28    -11.5717896 -0.419508E-07  0.102E-04    0.13     311.5  T
  29    -11.5717896  0.282849E-10  0.805E-05    0.13     392.9  T
     SCC iter.                  ...        0 min,  0.005 sec
     gradient                   ...        0 min,  0.001 sec
 * total energy  :   -11.5258193 Eh     change       -0.2115024E+00 Eh
   gradient norm :     0.2749547 Eh/α   predicted    -0.2176846E+00 (   2.92%)
   displ. norm   :     0.9558834 α      lambda       -0.2603908E+00
   maximum displ.:     0.7260112 α      in ANC's #17, #18, #13, ...

........................................................................
.............................. CYCLE    3 ..............................
........................................................................
   1    -11.6873055 -0.116873E+02  0.416E+00    0.33       0.0  T
   2    -10.2410666  0.144624E+01  0.104E+01    0.84       1.0  T
   3    -11.5732440 -0.133218E+01  0.494E+00    0.78       1.0  T
   4    -11.4428523  0.130392E+00  0.610E+00    0.14       1.0  T
   5    -11.7121431 -0.269291E+00  0.359E+00    0.39       1.0  T
   6    -11.6127921  0.993511E-01  0.395E+00    0.36       1.0  T
   7    -11.7843899 -0.171598E+00  0.287E+00    0.37       1.0  T
   8    -11.7409118  0.434781E-01  0.318E+00    0.46       1.0  T
   9    -11.7942262 -0.533144E-01  0.258E+00    0.37       1.0  T
  10    -11.8380759 -0.438497E-01  0.179E+00    0.32       1.0  T
  11    -11.8739110 -0.358351E-01  0.581E-01    0.27       1.0  T
  12    -11.8734075  0.503484E-03  0.673E-01    0.27       1.0  T
  13    -11.8753458 -0.193830E-02  0.318E-01    0.26       1.0  T
  14    -11.8764979 -0.115207E-02  0.989E-02    0.26       1.0  T
  15    -11.8752430  0.125490E-02  0.351E-01    0.25       1.0  T
  16    -11.8765230 -0.128002E-02  0.960E-02    0.26       1.0  T
  17    -11.8764944  0.286394E-04  0.749E-02    0.26       1.0  T
  18    -11.8765476 -0.532096E-04  0.343E-02    0.26       1.0  T
  19    -11.8765470  0.643256E-06  0.304E-02    0.26       1.0  T
  20    -11.8765571 -0.101430E-04  0.450E-03    0.26       7.0  T
  21    -11.8765570  0.696515E-07  0.445E-03    0.26       7.1  T
  22    -11.8765568  0.193274E-06  0.612E-03    0.26       5.2  T
  23    -11.8765572 -0.379578E-06  0.754E-04    0.26      41.9  T
  24    -11.8765572 -0.189284E-08  0.623E-04    0.26      50.7  T
     SCC iter.                  ...        0 min,  0.005 sec
     gradient                   ...        0 min,  0.001 sec
 * total energy  :   -11.7617183 Eh     change       -0.2358989E+00 Eh
   gradient norm :     0.1968194 Eh/α   predicted    -0.2491566E+00 (   5.62%)
   displ. norm   :     0.8729460 α      lambda       -0.1676261E+00
   maximum displ.:     0.5157145 α      in ANC's #17, #18, #13, ...

........................................................................
.............................. CYCLE    4 ..............................
........................................................................
   1    -12.0515108 -0.120515E+02  0.427E+00    1.03       0.0  T
   2    -11.1910895  0.860421E+00  0.771E+00    0.59       1.0  T
   3    -12.1159831 -0.924894E+00  0.271E+00    0.87       1.0  T
   4    -12.0064230  0.109560E+00  0.356E+00    0.43       1.0  T
   5    -12.1719056 -0.165483E+00  0.100E+00    0.59       1.0  T
   6    -12.1728385 -0.932948E-03  0.850E-01    0.52       1.0  T
   7    -12.1701262  0.271228E-02  0.101E+00    0.48       1.0  T
   8    -12.1765782 -0.645196E-02  0.631E-01    0.50       1.0  T
   9    -12.1812265 -0.464831E-02  0.398E-01    0.58       1.0  T
  10    -12.1810113  0.215210E-03  0.414E-01    0.58       1.0  T
  11    -12.1808828  0.128525E-03  0.449E-01    0.58       1.0  T
  12    -12.1815500 -0.667261E-03  0.242E-01    0.57       1.0  T
  13    -12.1818077 -0.257695E-03  0.104E-01    0.56       1.0  T
  14    -12.1817908  0.168991E-04  0.122E-01    0.56       1.0  T
  15    -12.1818572 -0.663981E-04  0.588E-03    0.55       5.4  T
  16    -12.1818573 -0.672802E-07  0.611E-03    0.55       5.2  T
  17    -12.1818574 -0.639327E-07  0.558E-03    0.55       5.7  T
  18    -12.1818576 -0.194840E-06  0.441E-04    0.55      71.7  T
  19    -12.1818576  0.514483E-08  0.109E-03    0.55      29.0  T
  20    -12.1818576 -0.463791E-08  0.521E-04    0.55      60.6  T
     SCC iter.                  ...        0 min,  0.003 sec
     gradient                   ...        0 min,  0.000 sec
 * total energy  :   -11.8282810 Eh     change       -0.6656276E-01 Eh
   gradient norm :     0.2554033 Eh/α   predicted    -0.1476815E+00 ( 121.87%)
   displ. norm   :     0.6357680 α      lambda       -0.1170861E+00
   maximum displ.:     0.3041753 α      in ANC's #6, #13, #7, ...

........................................................................
.............................. CYCLE    5 ..............................
........................................................................
   1    -12.0948307 -0.120948E+02  0.226E+00    0.48       0.0  T
   2    -11.4378060  0.657025E+00  0.658E+00    1.05       1.0  T
   3    -12.0077281 -0.569922E+00  0.309E+00    0.28       1.0  T
   4    -12.0257859 -0.180578E-01  0.208E+00    0.30       1.0  T
   5    -12.0827714 -0.569855E-01  0.153E+00    0.49       1.0  T
   6    -12.1082697 -0.254982E-01  0.674E-01    0.52       1.0  T
   7    -12.1108899 -0.262027E-02  0.456E-01    0.56       1.0  T
   8    -12.1111651 -0.275181E-03  0.420E-01    0.59       1.0  T
   9    -12.1107000  0.465157E-03  0.406E-01    0.62       1.0  T
  10    -12.1106815  0.184569E-04  0.258E-01    0.62       1.0  T
  11    -12.1116205 -0.939006E-03  0.113E-01    0.59       1.0  T
  12    -12.1116369 -0.163737E-04  0.847E-02    0.59       1.0  T
  13    -12.1116833 -0.464344E-04  0.590E-02    0.58       1.0  T
  14    -12.1116386  0.446679E-04  0.723E-02    0.57       1.0  T
  15    -12.1116822 -0.435508E-04  0.419E-02    0.58       1.0  T
  16    -12.1116976 -0.153590E-04  0.188E-02    0.58       1.7  T
  17    -12.1117023 -0.478147E-05  0.564E-03    0.58       5.6  T
  18    -12.1117026 -0.217370E-06  0.104E-03    0.58      30.3  T
  19    -12.1117026 -0.827276E-09  0.679E-04    0.58      46.6  T
  20    -12.1117026  0.597170E-08  0.887E-04    0.58      35.6  T
     SCC iter.                  ...        0 min,  0.003 sec
     gradient                   ...        0 min,  0.000 sec
 * total energy  :   -11.8875549 Eh     change       -0.5927390E-01 Eh
   gradient norm :     0.1044835 Eh/α   predicted    -0.8220620E-01 (  38.69%)
   displ. norm   :     0.8358911 α      lambda       -0.6552063E-01
   maximum displ.:     0.4712273 α      in ANC's #13, #7, #9, ...

........................................................................
.............................. CYCLE    6 ..............................
........................................................................
   1    -12.0998441 -0.120998E+02  0.370E+00    0.25       0.0  T
   2     -7.7787411  0.432110E+01  0.108E+01    0.55       1.0  T
   3    -11.3964933 -0.361775E+01  0.679E+00    0.23       1.0  T
   4    -11.4962842 -0.997908E-01  0.635E+00    0.09       1.0  T
   5    -11.4720767  0.242075E-01  0.618E+00    0.06       1.0  T
   6    -11.5390509 -0.669742E-01  0.500E+00    0.06       1.0  T
   7    -11.7767388 -0.237688E+00  0.397E+00    0.15       1.0  T
   8    -11.8068273 -0.300885E-01  0.382E+00    0.15       1.0  T
   9    -11.8376083 -0.307810E-01  0.345E+00    0.11       1.0  T
  10    -11.9226623 -0.850540E-01  0.276E+00    0.08       1.0  T
  11    -12.0340930 -0.111431E+00  0.197E+00    0.10       1.0  T
  12    -11.8987677  0.135325E+00  0.298E+00    0.08       1.0  T
  13    -12.0233608 -0.124593E+00  0.208E+00    0.11       1.0  T
  14    -12.0689398 -0.455790E-01  0.163E+00    0.13       1.0  T
  15    -12.1244230 -0.554833E-01  0.111E+00    0.19       1.0  T
  16    -12.1208418  0.358125E-02  0.114E+00    0.19       1.0  T
  17    -12.1208361  0.564553E-05  0.114E+00    0.19       1.0  T
  18    -12.1150045  0.583165E-02  0.114E+00    0.19       1.0  T
  19    -12.1454476 -0.304431E-01  0.893E-01    0.30       1.0  T
  20    -12.1429822  0.246546E-02  0.947E-01    0.36       1.0  T
  21    -12.1449062 -0.192407E-02  0.541E-01    0.37       1.0  T
  22    -12.1458579 -0.951627E-03  0.179E-01    0.38       1.0  T
  23    -12.1457289  0.128997E-03  0.203E-01    0.38       1.0  T
  24    -12.1462971 -0.568252E-03  0.120E-01    0.35       1.0  T
  25    -12.1463096 -0.124740E-04  0.101E-01    0.35       1.0  T
  26    -12.1462929  0.167179E-04  0.112E-01    0.35       1.0  T
  27    -12.1462796  0.132767E-04  0.742E-02    0.35       1.0  T
  28    -12.1463293 -0.496629E-04  0.517E-02    0.36       1.0  T
  29    -12.1463521 -0.227953E-04  0.300E-02    0.36       1.1  T
  30    -12.1463528 -0.725334E-06  0.290E-02    0.36       1.1  T
  31    -12.1463517  0.109612E-05  0.230E-02    0.36       1.4  T
  32    -12.1463527 -0.996181E-06  0.156E-02    0.36       2.0  T
  33    -12.1463535 -0.800475E-06  0.455E-03    0.36       7.0  T
  34    -12.1463536 -0.967824E-07  0.892E-04    0.36      35.5  T
  35    -12.1463536  0.118617E-08  0.114E-03    0.36      27.7  T
  36    -12.1463536 -0.295341E-08  0.352E-04    0.36      89.9  T
     SCC iter.                  ...        0 min,  0.006 sec
     gradient                   ...        0 min,  0.001 sec
 * total energy  :   -11.9202685 Eh     change       -0.3271359E-01 Eh
   gradient norm :     0.1872225 Eh/α   predicted    -0.5565038E-01 (  70.11%)
   displ. norm   :     0.7257594 α      lambda       -0.7511755E-01
   maximum displ.:     0.4031963 α      in ANC's #13, #7, #18, ...

........................................................................
.............................. CYCLE    7 ..............................
........................................................................
   1    -12.1705915 -0.121706E+02  0.481E+00    0.46       0.0  T
   2     -4.6329544  0.753764E+01  0.124E+01    0.74       1.0  T
   3    -11.3508263 -0.671787E+01  0.694E+00    0.18       1.0  T
   4    -11.5189739 -0.168148E+00  0.598E+00    0.27       1.0  T
   5    -11.2847083  0.234266E+00  0.542E+00    0.09       1.0  T
   6    -11.8201322 -0.535424E+00  0.378E+00    0.50       1.0  T
   7    -11.9714028 -0.151271E+00  0.301E+00    0.45       1.0  T
   8    -11.9460950  0.253079E-01  0.289E+00    0.45       1.0  T
   9    -12.0002536 -0.541586E-01  0.265E+00    0.44       1.0  T
  10    -12.1030282 -0.102775E+00  0.200E+00    0.44       1.0  T
  11    -12.1011255  0.190266E-02  0.194E+00    0.44       1.0  T
  12    -12.1655980 -0.644726E-01  0.151E+00    0.43       1.0  T
  13    -12.1886404 -0.230423E-01  0.128E+00    0.43       1.0  T
  14    -12.1741382  0.145022E-01  0.133E+00    0.44       1.0  T
  15    -12.2283227 -0.541845E-01  0.730E-01    0.42       1.0  T
  16    -12.2298528 -0.153009E-02  0.707E-01    0.42       1.0  T
  17    -12.2302251 -0.372297E-03  0.733E-01    0.41       1.0  T
  18    -12.2281371  0.208796E-02  0.487E-01    0.43       1.0  T
  19    -12.2343098 -0.617267E-02  0.385E-01    0.43       1.0  T
  20    -12.2348742 -0.564421E-03  0.908E-02    0.44       1.0  T
  21    -12.2334070  0.146721E-02  0.229E-01    0.44       1.0  T
  22    -12.2332570  0.150028E-03  0.257E-01    0.44       1.0  T
  23    -12.2350035 -0.174658E-02  0.774E-02    0.44       1.0  T
  24    -12.2350206 -0.171137E-04  0.177E-02    0.44       1.8  T
  25    -12.2350201  0.584170E-06  0.963E-03    0.44       3.3  T
  26    -12.2350230 -0.289839E-05  0.189E-03    0.44      16.7  T
  27    -12.2350231 -0.131721E-06  0.170E-03    0.44      18.6  T
  28    -12.2350231 -0.197325E-09  0.426E-04    0.44      74.2  T
  29    -12.2350231  0.179961E-08  0.344E-04    0.44      91.9  T
     SCC iter.                  ...        0 min,  0.006 sec
     gradient                   ...        0 min,  0.001 sec
 * total energy  :   -11.9707125 Eh     change       -0.5044399E-01 Eh
   gradient norm :     0.0666345 Eh/α   predicted    -0.5734197E-01 (  13.67%)
   displ. norm   :     0.7861664 α      lambda       -0.3497538E-01
   maximum displ.:     0.5286253 α      in ANC's #7, #10, #8, ...

........................................................................
.............................. CYCLE    8 ..............................
........................................................................
   1    -12.2451369 -0.122451E+02  0.254E+00    0.50       0.0  T
   2    -11.3844801  0.860657E+00  0.615E+00    0.33       1.0  T
   3    -12.2353630 -0.850883E+00  0.198E+00    0.51       1.0  T
   4    -12.0307612  0.204602E+00  0.362E+00    0.36       1.0  T
   5    -12.2318829 -0.201122E+00  0.135E+00    0.44       1.0  T
   6    -12.2553197 -0.234368E-01  0.747E-01    0.44       1.0  T
   7    -12.2606917 -0.537195E-02  0.493E-01    0.48       1.0  T
   8    -12.2608863 -0.194656E-03  0.439E-01    0.48       1.0  T
   9    -12.2626669 -0.178063E-02  0.299E-01    0.47       1.0  T
  10    -12.2637701 -0.110313E-02  0.169E-01    0.47       1.0  T
  11    -12.2636607  0.109365E-03  0.170E-01    0.47       1.0  T
  12    -12.2637136 -0.528685E-04  0.159E-01    0.47       1.0  T
  13    -12.2640192 -0.305589E-03  0.848E-02    0.47       1.0  T
  14    -12.2640503 -0.311574E-04  0.687E-02    0.47       1.0  T
  15    -12.2641203 -0.699680E-04  0.313E-02    0.47       1.0  T
  16    -12.2641368 -0.165051E-04  0.404E-03    0.47       7.8  T
  17    -12.2641370 -0.238915E-06  0.282E-03    0.47      11.2  T
  18    -12.2641371 -0.841692E-07  0.999E-04    0.47      31.6  T
  19    -12.2641371 -0.346373E-08  0.222E-04    0.47     142.5  T
     SCC iter.                  ...        0 min,  0.004 sec
     gradient                   ...        0 min,  0.000 sec
 * total energy  :   -11.9875649 Eh     change       -0.1685238E-01 Eh
   gradient norm :     0.1853264 Eh/α   predicted    -0.2829610E-01 (  67.91%)
   displ. norm   :     0.6743879 α      lambda       -0.6098199E-01
   maximum displ.:     0.2502141 α      in ANC's #23, #7, #6, ...

........................................................................
.............................. CYCLE    9 ..............................
........................................................................
   1    -12.2960535 -0.122961E+02  0.199E+00    0.40       0.0  T
   2    -12.2405084  0.555451E-01  0.184E+00    0.40       1.0  T
   3    -12.2076043  0.329041E-01  0.245E+00    0.33       1.0  T
   4    -12.2189932 -0.113889E-01  0.216E+00    0.46       1.0  T
   5    -12.2803994 -0.614063E-01  0.121E+00    0.34       1.0  T
   6    -12.3040764 -0.236769E-01  0.306E-01    0.39       1.0  T
   7    -12.3052207 -0.114433E-02  0.252E-01    0.40       1.0  T
   8    -12.3054896 -0.268904E-03  0.207E-01    0.40       1.0  T
   9    -12.3055450 -0.554275E-04  0.145E-01    0.40       1.0  T
  10    -12.3056498 -0.104790E-03  0.115E-01    0.40       1.0  T
  11    -12.3057236 -0.738014E-04  0.853E-02    0.40       1.0  T
  12    -12.3058213 -0.977066E-04  0.289E-02    0.40       1.1  T
  13    -12.3058282 -0.690863E-05  0.151E-02    0.40       2.1  T
  14    -12.3058310 -0.272324E-05  0.222E-03    0.40      14.3  T
  15    -12.3058310 -0.352879E-07  0.335E-04    0.40      94.5  T
  16    -12.3058310 -0.367079E-09  0.155E-04    0.40     203.6  T
     SCC iter.                  ...        0 min,  0.003 sec
     gradient                   ...        0 min,  0.001 sec
 * total energy  :   -12.0129617 Eh     change       -0.2539685E-01 Eh
   gradient norm :     0.1637302 Eh/α   predicted    -0.4435826E-01 (  74.66%)
   displ. norm   :     0.6885873 α      lambda       -0.5665199E-01
   maximum displ.:     0.3471899 α      in ANC's #7, #5, #10, ...

........................................................................
.............................. CYCLE   10 ..............................
........................................................................
   1    -12.3696802 -0.123697E+02  0.275E+00    0.36       0.0  T
   2    -12.0733212  0.296359E+00  0.397E+00    0.45       1.0  T
   3    -12.2309279 -0.157607E+00  0.286E+00    0.38       1.0  T
   4    -12.2970931 -0.661652E-01  0.257E+00    0.37       1.0  T
   5    -12.3569839 -0.598908E-01  0.113E+00    0.40       1.0  T
   6    -12.3806123 -0.236283E-01  0.782E-01    0.39       1.0  T
   7    -12.3794494  0.116289E-02  0.709E-01    0.40       1.0  T
   8    -12.3833710 -0.392164E-02  0.376E-01    0.40       1.0  T
   9    -12.3836168 -0.245840E-03  0.235E-01    0.40       1.0  T
  10    -12.3837965 -0.179678E-03  0.170E-01    0.41       1.0  T
  11    -12.3839928 -0.196269E-03  0.109E-01    0.41       1.0  T
  12    -12.3841375 -0.144741E-03  0.365E-02    0.41       1.0  T
  13    -12.3841474 -0.987008E-05  0.125E-02    0.41       2.5  T
  14    -12.3841476 -0.149764E-06  0.396E-03    0.41       8.0  T
  15    -12.3841476 -0.392996E-07  0.176E-03    0.41      18.0  T
  16    -12.3841476 -0.253379E-07  0.110E-03    0.41      28.9  T
  17    -12.3841476 -0.206452E-07  0.417E-04    0.41      75.9  T
  18    -12.3841476 -0.221513E-08  0.126E-04    0.41     251.0  T
     SCC iter.                  ...        0 min,  0.003 sec
     gradient                   ...        0 min,  0.000 sec
 * total energy  :   -11.9296019 Eh     change        0.8335978E-01 Eh
   gradient norm :     0.7813284 Eh/α   predicted    -0.4175684E-01 (-150.09%)
   displ. norm   :     0.3298022 α      lambda       -0.2309019E+00
   maximum displ.:     0.1791308 α      in ANC's #19, #10, #5, ...

........................................................................
.............................. CYCLE   11 ..............................
........................................................................
   1    -12.3188629 -0.123189E+02  0.150E+00    0.43       0.0  T
   2    -12.3196736 -0.810748E-03  0.986E-01    0.42       1.0  T
   3    -12.3158433  0.383032E-02  0.831E-01    0.42       1.0  T
   4    -12.2407385  0.751048E-01  0.195E+00    0.40       1.0  T
   5    -12.3217673 -0.810288E-01  0.204E-01    0.42       1.0  T
   6    -12.3208211  0.946233E-03  0.302E-01    0.42       1.0  T
   7    -12.3222176 -0.139654E-02  0.124E-01    0.42       1.0  T
   8    -12.3223007 -0.831228E-04  0.983E-02    0.42       1.0  T
   9    -12.3223851 -0.843523E-04  0.620E-02    0.42       1.0  T
  10    -12.3223883 -0.316826E-05  0.555E-02    0.42       1.0  T
  11    -12.3224241 -0.358091E-04  0.309E-02    0.42       1.0  T
  12    -12.3224353 -0.111756E-04  0.149E-02    0.42       2.1  T
  13    -12.3224380 -0.278088E-05  0.352E-03    0.42       9.0  T
  14    -12.3224382 -0.202507E-06  0.577E-04    0.42      54.8  T
  15    -12.3224382 -0.306917E-08  0.209E-04    0.42     151.3  T
     SCC iter.                  ...        0 min,  0.003 sec
     gradient                   ...        0 min,  0.000 sec
 * total energy  :   -12.0273653 Eh     change       -0.9776335E-01 Eh
   gradient norm :     0.1112100 Eh/α   predicted    -0.1280085E+00 (  30.94%)
   displ. norm   :     0.7448099 α      lambda       -0.6463320E-01
   maximum displ.:     0.4174138 α      in ANC's #9, #13, #5, ...

........................................................................
.............................. CYCLE   12 ..............................
........................................................................
   1    -12.2991095 -0.122991E+02  0.603E+00    0.41       0.0  T
   2    -11.6365793  0.662530E+00  0.594E+00    0.22       1.0  T
   3     -9.5378291  0.209875E+01  0.139E+01    0.37       1.0  T
   4    -11.5209329 -0.198310E+01  0.765E+00    0.64       1.0  T
   5    -12.1604441 -0.639511E+00  0.508E+00    0.76       1.0  T
   6    -12.3034244 -0.142980E+00  0.190E+00    0.33       1.0  T
   7    -12.3262248 -0.228004E-01  0.139E+00    0.35       1.0  T
   8    -12.3374053 -0.111805E-01  0.106E+00    0.38       1.0  T
   9    -12.3426547 -0.524933E-02  0.815E-01    0.40       1.0  T
  10    -12.3486627 -0.600799E-02  0.533E-01    0.46       1.0  T
  11    -12.3491627 -0.500025E-03  0.341E-01    0.45       1.0  T
  12    -12.3476968  0.146588E-02  0.370E-01    0.42       1.0  T
  13    -12.3472774  0.419379E-03  0.358E-01    0.41       1.0  T
  14    -12.3481436 -0.866211E-03  0.282E-01    0.42       1.0  T
  15    -12.3486482 -0.504525E-03  0.223E-01    0.42       1.0  T
  16    -12.3487853 -0.137136E-03  0.206E-01    0.42       1.0  T
  17    -12.3490911 -0.305811E-03  0.146E-01    0.42       1.0  T
  18    -12.3492549 -0.163842E-03  0.103E-01    0.43       1.0  T
  19    -12.3493923 -0.137332E-03  0.304E-02    0.43       1.0  T
  20    -12.3493871  0.514029E-05  0.335E-02    0.43       1.0  T
  21    -12.3493977 -0.105166E-04  0.186E-02    0.43       1.7  T
  22    -12.3494018 -0.417505E-05  0.380E-03    0.43       8.3  T
  23    -12.3494019 -0.351078E-07  0.937E-04    0.43      33.7  T
  24    -12.3494018  0.257954E-07  0.160E-03    0.43      19.8  T
  25    -12.3494019 -0.273667E-07  0.796E-04    0.43      39.7  T
     SCC iter.                  ...        0 min,  0.004 sec
     gradient                   ...        0 min,  0.001 sec
 * total energy  :   -12.0025407 Eh     change        0.2482456E-01 Eh
   gradient norm :     0.2620333 Eh/α   predicted    -0.5024398E-01 (-302.40%)
   displ. norm   :     0.4049855 α      lambda       -0.7417803E-01
   maximum displ.:     0.2395824 α      in ANC's #9, #6, #2, ...

........................................................................
.............................. CYCLE   13 ..............................
........................................................................
   1    -12.3259671 -0.123260E+02  0.199E+00    0.32       0.0  T
   2    -12.1691729  0.156794E+00  0.318E+00    0.66       1.0  T
   3    -12.1317050  0.374679E-01  0.445E+00    0.25       1.0  T
   4    -12.2214306 -0.897256E-01  0.341E+00    0.26       1.0  T
   5    -12.2594150 -0.379844E-01  0.252E+00    0.27       1.0  T
   6    -12.3044589 -0.450439E-01  0.160E+00    0.30       1.0  T
   7    -12.3263724 -0.219135E-01  0.903E-01    0.32       1.0  T
   8    -12.3299243 -0.355199E-02  0.709E-01    0.33       1.0  T
   9    -12.3306201 -0.695737E-03  0.591E-01    0.35       1.0  T
  10    -12.3302522  0.367912E-03  0.663E-01    0.37       1.0  T
  11    -12.3298378  0.414401E-03  0.640E-01    0.36       1.0  T
  12    -12.3321492 -0.231144E-02  0.249E-01    0.38       1.0  T
  13    -12.3321008  0.484246E-04  0.269E-01    0.38       1.0  T
  14    -12.3323963 -0.295540E-03  0.957E-02    0.39       1.0  T
  15    -12.3324119 -0.156148E-04  0.286E-02    0.39       1.1  T
  16    -12.3324123 -0.316064E-06  0.185E-02    0.39       1.7  T
  17    -12.3324129 -0.620112E-06  0.102E-02    0.39       3.1  T
  18    -12.3324134 -0.528756E-06  0.198E-03    0.39      15.9  T
  19    -12.3324134 -0.232015E-07  0.882E-04    0.39      35.9  T
  20    -12.3324134 -0.665724E-08  0.183E-04    0.39     173.2  T
     SCC iter.                  ...        0 min,  0.003 sec
     gradient                   ...        0 min,  0.001 sec
 * total energy  :   -12.0421125 Eh     change       -0.3957179E-01 Eh
   gradient norm :     0.0524852 Eh/α   predicted    -0.4317209E-01 (   9.10%)
   displ. norm   :     0.7149957 α      lambda       -0.3184733E-01
   maximum displ.:     0.4378425 α      in ANC's #13, #3, #1, ...

........................................................................
.............................. CYCLE   14 ..............................
........................................................................
   1    -12.3704666 -0.123705E+02  0.414E+00    0.25       0.0  T
   2    -12.2444940  0.125973E+00  0.329E+00    0.26       1.0  T
   3    -12.1302684  0.114226E+00  0.432E+00    0.23       1.0  T
   4    -12.3628243 -0.232556E+00  0.136E+00    0.26       1.0  T
   5    -12.3717165 -0.889212E-02  0.160E+00    0.24       1.0  T
   6    -12.3948834 -0.231669E-01  0.610E-01    0.26       1.0  T
   7    -12.3894190  0.546434E-02  0.102E+00    0.25       1.0  T
   8    -12.3946831 -0.526408E-02  0.633E-01    0.25       1.0  T
   9    -12.3969377 -0.225458E-02  0.208E-01    0.25       1.0  T
  10    -12.3955598  0.137792E-02  0.369E-01    0.25       1.0  T
  11    -12.3968379 -0.127808E-02  0.189E-01    0.25       1.0  T
  12    -12.3969543 -0.116485E-03  0.641E-02    0.25       1.0  T
  13    -12.3969545 -0.191722E-06  0.387E-02    0.25       1.0  T
  14    -12.3969543  0.220527E-06  0.366E-02    0.25       1.0  T
  15    -12.3969562 -0.187932E-05  0.108E-02    0.25       2.9  T
  16    -12.3969563 -0.873427E-07  0.144E-03    0.25      22.0  T
  17    -12.3969563  0.113039E-07  0.159E-03    0.25      19.9  T
  18    -12.3969563 -0.161264E-07  0.404E-04    0.25      78.3  T
  19    -12.3969563 -0.130656E-09  0.820E-05    0.25     385.7  T
     SCC iter.                  ...        0 min,  0.004 sec
     gradient                   ...        0 min,  0.000 sec
 * total energy  :   -12.0406263 Eh     change        0.1486251E-02 Eh
   gradient norm :     0.1571916 Eh/α   predicted    -0.2406415E-01 (*******%)
   displ. norm   :     0.4700467 α      lambda       -0.4942974E-01
   maximum displ.:     0.2597646 α      in ANC's #8, #7, #13, ...

........................................................................
.............................. CYCLE   15 ..............................
........................................................................
   1    -12.3268497 -0.123268E+02  0.285E+00    0.24       0.0  T
   2    -12.1219457  0.204904E+00  0.376E+00    0.26       1.0  T
   3    -12.2724168 -0.150471E+00  0.209E+00    0.24       1.0  T
   4    -11.6114316  0.660985E+00  0.622E+00    0.46       1.0  T
   5    -12.2217012 -0.610270E+00  0.350E+00    0.34       1.0  T
   6    -12.0086169  0.213084E+00  0.425E+00    0.42       1.0  T
   7    -12.1254550 -0.116838E+00  0.349E+00    0.42       1.0  T
   8    -12.2891929 -0.163738E+00  0.165E+00    0.37       1.0  T
   9    -12.3427584 -0.535654E-01  0.335E-01    0.33       1.0  T
  10    -12.3447506 -0.199221E-02  0.326E-01    0.32       1.0  T
  11    -12.3452977 -0.547121E-03  0.272E-01    0.31       1.0  T
  12    -12.3458875 -0.589817E-03  0.790E-02    0.29       1.0  T
  13    -12.3456415  0.246048E-03  0.135E-01    0.28       1.0  T
  14    -12.3458557 -0.214230E-03  0.938E-02    0.28       1.0  T
  15    -12.3459111 -0.553738E-04  0.514E-02    0.29       1.0  T
  16    -12.3459196 -0.852285E-05  0.368E-02    0.29       1.0  T
  17    -12.3459283 -0.873866E-05  0.178E-02    0.29       1.8  T
  18    -12.3459309 -0.260620E-05  0.796E-03    0.29       4.0  T
  19    -12.3459315 -0.609982E-06  0.681E-04    0.29      46.4  T
  20    -12.3459315 -0.374026E-08  0.187E-04    0.29     169.0  T
     SCC iter.                  ...        0 min,  0.003 sec
     gradient                   ...        0 min,  0.001 sec
 * total energy  :   -12.0600580 Eh     change       -0.1943173E-01 Eh
   gradient norm :     0.0502040 Eh/α   predicted    -0.3017547E-01 (  55.29%)
   displ. norm   :     0.6186394 α      lambda       -0.1508495E-01
   maximum displ.:     0.2580405 α      in ANC's #5, #13, #8, ...

........................................................................
.............................. CYCLE   16 ..............................
........................................................................
   1    -12.3927948 -0.123928E+02  0.247E+00    0.32       0.0  T
   2    -12.3467082  0.460866E-01  0.209E+00    0.28       1.0  T
   3    -12.1420900  0.204618E+00  0.505E+00    0.52       1.0  T
   4    -12.3141625 -0.172072E+00  0.230E+00    0.33       1.0  T
   5    -12.3385796 -0.244171E-01  0.256E+00    0.40       1.0  T
   6    -12.3599157 -0.213361E-01  0.216E+00    0.40       1.0  T
   7    -12.3647126 -0.479692E-02  0.193E+00    0.40       1.0  T
   8    -12.3967243 -0.320116E-01  0.510E-01    0.33       1.0  T
   9    -12.3962765  0.447763E-03  0.531E-01    0.32       1.0  T
  10    -12.3965696 -0.293055E-03  0.417E-01    0.32       1.0  T
  11    -12.3968818 -0.312238E-03  0.231E-01    0.32       1.0  T
  12    -12.3973958 -0.513979E-03  0.115E-01    0.32       1.0  T
  13    -12.3974147 -0.189617E-04  0.658E-02    0.33       1.0  T
  14    -12.3974003  0.144290E-04  0.364E-02    0.33       1.0  T
  15    -12.3974151 -0.148249E-04  0.148E-02    0.33       2.1  T
  16    -12.3974161 -0.917896E-06  0.567E-03    0.33       5.6  T
  17    -12.3974161 -0.634636E-07  0.380E-03    0.33       8.3  T
  18    -12.3974161 -0.418041E-08  0.191E-03    0.33      16.5  T
  19    -12.3974161  0.247324E-09  0.105E-03    0.33      30.0  T
  20    -12.3974161 -0.106651E-08  0.252E-04    0.33     125.3  T
  21    -12.3974161 -0.428404E-10  0.549E-05    0.33     576.5  T
     SCC iter.                  ...        0 min,  0.004 sec
     gradient                   ...        0 min,  0.000 sec
 * total energy  :   -12.0553662 Eh     change        0.4691826E-02 Eh
   gradient norm :     0.1249983 Eh/α   predicted    -0.1042911E-01 (-322.28%)
   displ. norm   :     0.4684462 α      lambda       -0.2611763E-01
   maximum displ.:     0.1899243 α      in ANC's #13, #2, #3, ...

........................................................................
.............................. CYCLE   17 ..............................
........................................................................
   1    -12.3598305 -0.123598E+02  0.158E+00    0.28       0.0  T
   2    -12.3098231  0.500074E-01  0.177E+00    0.35       1.0  T
   3    -12.2946882  0.151349E-01  0.272E+00    0.24       1.0  T
   4    -12.2801767  0.145115E-01  0.196E+00    0.31       1.0  T
   5    -12.3602519 -0.800751E-01  0.778E-01    0.27       1.0  T
   6    -12.3629750 -0.272315E-02  0.557E-01    0.27       1.0  T
   7    -12.3625343  0.440726E-03  0.571E-01    0.27       1.0  T
   8    -12.3630689 -0.534570E-03  0.503E-01    0.27       1.0  T
   9    -12.3643606 -0.129168E-02  0.326E-01    0.28       1.0  T
  10    -12.3651794 -0.818834E-03  0.907E-02    0.28       1.0  T
  11    -12.3652082 -0.287873E-04  0.562E-02    0.28       1.0  T
  12    -12.3652364 -0.282270E-04  0.885E-03    0.28       3.6  T
  13    -12.3652356  0.831438E-06  0.113E-02    0.28       2.8  T
  14    -12.3652367 -0.115236E-05  0.286E-03    0.28      11.0  T
  15    -12.3652367 -0.211509E-07  0.169E-03    0.28      18.7  T
  16    -12.3652368 -0.287141E-07  0.389E-04    0.28      81.3  T
  17    -12.3652368 -0.522482E-09  0.181E-04    0.28     175.0  T
     SCC iter.                  ...        0 min,  0.003 sec
     gradient                   ...        0 min,  0.000 sec
 * total energy  :   -12.0695288 Eh     change       -0.1416261E-01 Eh
   gradient norm :     0.0628797 Eh/α   predicted    -0.1592446E-01 (  12.44%)
   displ. norm   :     0.6126119 α      lambda       -0.1211182E-01
   maximum displ.:     0.3849887 α      in ANC's #3, #7, #6, ...

........................................................................
.............................. CYCLE   18 ..............................
........................................................................
   1    -12.3672674 -0.123673E+02  0.236E+00    0.21       0.0  T
   2    -12.2556824  0.111585E+00  0.239E+00    0.27       1.0  T
   3    -12.1431975  0.112485E+00  0.389E+00    0.14       1.0  T
   4    -12.2811103 -0.137913E+00  0.213E+00    0.17       1.0  T
   5    -12.3345229 -0.534125E-01  0.149E+00    0.17       1.0  T
   6    -12.3584913 -0.239685E-01  0.857E-01    0.18       1.0  T
   7    -12.3648510 -0.635970E-02  0.633E-01    0.19       1.0  T
   8    -12.3694830 -0.463201E-02  0.355E-01    0.20       1.0  T
   9    -12.3699476 -0.464544E-03  0.283E-01    0.21       1.0  T
  10    -12.3699657 -0.181715E-04  0.279E-01    0.21       1.0  T
  11    -12.3701417 -0.175921E-03  0.246E-01    0.21       1.0  T
  12    -12.3705546 -0.412916E-03  0.158E-01    0.21       1.0  T
  13    -12.3708231 -0.268500E-03  0.645E-02    0.21       1.0  T
  14    -12.3708843 -0.612156E-04  0.345E-02    0.21       1.0  T
  15    -12.3709023 -0.180518E-04  0.419E-03    0.21       7.5  T
  16    -12.3709024 -0.237434E-07  0.259E-03    0.21      12.2  T
  17    -12.3709024 -0.490040E-07  0.104E-03    0.21      30.3  T
  18    -12.3709024 -0.394638E-08  0.636E-04    0.21      49.7  T
  19    -12.3709024 -0.176601E-08  0.188E-04    0.21     168.4  T
     SCC iter.                  ...        0 min,  0.002 sec
     gradient                   ...        0 min,  0.001 sec
 * total energy  :   -12.0671446 Eh     change        0.2384178E-02 Eh
   gradient norm :     0.1196376 Eh/α   predicted    -0.8328676E-02 (-449.33%)
   displ. norm   :     0.4006300 α      lambda       -0.1563042E-01
   maximum displ.:     0.2127436 α      in ANC's #2, #6, #13, ...

........................................................................
.............................. CYCLE   19 ..............................
........................................................................
   1    -12.3716848 -0.123717E+02  0.154E+00    0.20       0.0  T
   2    -12.3617311  0.995372E-02  0.994E-01    0.18       1.0  T
   3    -11.9799574  0.381774E+00  0.508E+00    0.33       1.0  T
   4    -12.3447872 -0.364830E+00  0.146E+00    0.21       1.0  T
   5    -12.3325860  0.122012E-01  0.208E+00    0.24       1.0  T
   6    -12.3357843 -0.319828E-02  0.186E+00    0.24       1.0  T
   7    -12.3488210 -0.130367E-01  0.151E+00    0.24       1.0  T
   8    -12.3722954 -0.234745E-01  0.192E-01    0.21       1.0  T
   9    -12.3721818  0.113604E-03  0.268E-01    0.21       1.0  T
  10    -12.3722210 -0.392006E-04  0.239E-01    0.21       1.0  T
  11    -12.3723099 -0.888960E-04  0.129E-01    0.21       1.0  T
  12    -12.3723198 -0.982944E-05  0.935E-02    0.21       1.0  T
  13    -12.3723368 -0.170475E-04  0.299E-02    0.21       1.1  T
  14    -12.3723378 -0.997819E-06  0.160E-02    0.20       2.0  T
  15    -12.3723366  0.125151E-05  0.122E-02    0.20       2.6  T
  16    -12.3723376 -0.109238E-05  0.562E-03    0.20       5.6  T
  17    -12.3723380 -0.329725E-06  0.244E-03    0.20      12.9  T
  18    -12.3723380 -0.328634E-07  0.102E-03    0.20      30.9  T
  19    -12.3723380 -0.699023E-08  0.139E-04    0.20     228.3  T
  20    -12.3723380 -0.329930E-09  0.292E-05    0.20    1083.0  T
     SCC iter.                  ...        0 min,  0.004 sec
     gradient                   ...        0 min,  0.001 sec
 * total energy  :   -12.0759657 Eh     change       -0.8821082E-02 Eh
   gradient norm :     0.0364104 Eh/α   predicted    -0.9069588E-02 (   2.82%)
   displ. norm   :     0.5508590 α      lambda       -0.7949142E-02
   maximum displ.:     0.3138403 α      in ANC's #3, #6, #2, ...

........................................................................
.............................. CYCLE   20 ..............................
........................................................................
   1    -12.3793865 -0.123794E+02  0.186E+00    0.28       0.0  T
   2    -12.3466904  0.326962E-01  0.184E+00    0.26       1.0  T
   3    -12.2082323  0.138458E+00  0.356E+00    0.35       1.0  T
   4    -12.2839936 -0.757613E-01  0.237E+00    0.24       1.0  T
   5    -12.3800074 -0.960139E-01  0.494E-01    0.26       1.0  T
   6    -12.3811340 -0.112657E-02  0.378E-01    0.27       1.0  T
   7    -12.3820376 -0.903637E-03  0.261E-01    0.27       1.0  T
   8    -12.3819809  0.567569E-04  0.142E-01    0.27       1.0  T
   9    -12.3817367  0.244174E-03  0.211E-01    0.27       1.0  T
  10    -12.3816507  0.860379E-04  0.228E-01    0.27       1.0  T
  11    -12.3818476 -0.196897E-03  0.165E-01    0.27       1.0  T
  12    -12.3821488 -0.301239E-03  0.416E-02    0.27       1.0  T
  13    -12.3821496 -0.787599E-06  0.385E-02    0.27       1.0  T
  14    -12.3821599 -0.103341E-04  0.184E-02    0.27       1.7  T
  15    -12.3821631 -0.313403E-05  0.381E-03    0.27       8.3  T
  16    -12.3821632 -0.150981E-06  0.778E-04    0.27      40.6  T
  17    -12.3821632 -0.670903E-08  0.662E-04    0.27      47.7  T
     SCC iter.                  ...        0 min,  0.003 sec
     gradient                   ...        0 min,  0.001 sec
 * total energy  :   -12.0688370 Eh     change        0.7128706E-02 Eh
   gradient norm :     0.1309947 Eh/α   predicted    -0.5180649E-02 (-172.67%)
   displ. norm   :     0.2932660 α      lambda       -0.2351038E-01
   maximum displ.:     0.1416589 α      in ANC's #8, #14, #7, ...
 * RMSD in coord.:     2.3027893 α      energy gain  -0.7545200E+00 Eh

generating ANC from model Hessian ...
Using Lindh-Hessian (1995)
 Shifting diagonal of input Hessian by    1.0357229978460007E-002
 Lowest  eigenvalues of input Hessian
    0.010000    0.010084    0.010148    0.010250    0.010260    0.000000
    0.000000    0.000000    0.000000    0.000000    0.000000    0.010391
    0.010446    0.010640    0.011258    0.011494    0.013893    0.021496
 Highest eigenvalues
    0.466167    0.514910    0.873259    1.165508    1.930017    2.609891


........................................................................
.............................. CYCLE   21 ..............................
........................................................................
   1    -12.3853523 -0.123854E+02  0.871E-01    0.27       0.0  T
   2    -12.3505817  0.347706E-01  0.138E+00    0.29       1.0  T
   3    -12.3767669 -0.261851E-01  0.965E-01    0.26       1.0  T
   4    -12.3713173  0.544959E-02  0.132E+00    0.30       1.0  T
   5    -12.3879618 -0.166445E-01  0.253E-01    0.28       1.0  T
   6    -12.3881885 -0.226647E-03  0.215E-01    0.28       1.0  T
   7    -12.3882504 -0.619312E-04  0.189E-01    0.28       1.0  T
   8    -12.3884465 -0.196105E-03  0.116E-01    0.28       1.0  T
   9    -12.3885419 -0.954257E-04  0.208E-02    0.28       1.5  T
  10    -12.3885382  0.373913E-05  0.238E-02    0.28       1.3  T
  11    -12.3885410 -0.282026E-05  0.175E-02    0.28       1.8  T
  12    -12.3885420 -0.103930E-05  0.142E-02    0.28       2.2  T
  13    -12.3885432 -0.115039E-05  0.766E-03    0.28       4.1  T
  14    -12.3885436 -0.432178E-06  0.250E-03    0.28      12.7  T
  15    -12.3885437 -0.294539E-07  0.162E-03    0.28      19.6  T
  16    -12.3885437 -0.213796E-07  0.114E-04    0.28     276.9  T
  17    -12.3885437 -0.545928E-10  0.485E-05    0.28     651.4  T
     SCC iter.                  ...        0 min,  0.002 sec
     gradient                   ...        0 min,  0.000 sec
 * total energy  :   -12.0776829 Eh     change       -0.8845957E-02 Eh
   gradient norm :     0.0600762 Eh/α   predicted     0.0000000E+00 (-100.00%)
   displ. norm   :     0.3092005 α      lambda       -0.5558539E-02
   maximum displ.:     0.2348270 α      in ANC's #8, #13, #10, ...

........................................................................
.............................. CYCLE   22 ..............................
........................................................................
   1    -12.3927877 -0.123928E+02  0.101E+00    0.26       0.0  T
   2    -12.3891565  0.363114E-02  0.838E-01    0.25       1.0  T
   3    -12.3124516  0.767050E-01  0.208E+00    0.30       1.0  T
   4    -12.3728054 -0.603538E-01  0.126E+00    0.24       1.0  T
   5    -12.3913824 -0.185770E-01  0.370E-01    0.25       1.0  T
   6    -12.3928331 -0.145075E-02  0.181E-01    0.25       1.0  T
   7    -12.3929252 -0.920617E-04  0.139E-01    0.25       1.0  T
   8    -12.3929821 -0.568812E-04  0.114E-01    0.25       1.0  T
   9    -12.3930954 -0.113323E-03  0.526E-02    0.26       1.0  T
  10    -12.3930856  0.978612E-05  0.589E-02    0.26       1.0  T
  11    -12.3930888 -0.316801E-05  0.537E-02    0.26       1.0  T
  12    -12.3931197 -0.309666E-04  0.908E-03    0.26       3.5  T
  13    -12.3931202 -0.438009E-06  0.631E-03    0.26       5.0  T
  14    -12.3931206 -0.383475E-06  0.129E-03    0.26      24.5  T
  15    -12.3931206 -0.110743E-08  0.567E-04    0.26      55.7  T
  16    -12.3931206 -0.279328E-08  0.254E-04    0.26     124.5  T
     SCC iter.                  ...        0 min,  0.002 sec
     gradient                   ...        0 min,  0.001 sec
 * total energy  :   -12.0814129 Eh     change       -0.3729981E-02 Eh
   gradient norm :     0.0194124 Eh/α   predicted    -0.3044984E-02 ( -18.36%)
   displ. norm   :     0.4448938 α      lambda       -0.3927500E-02
   maximum displ.:     0.2584438 α      in ANC's #13, #11, #8, ...

........................................................................
.............................. CYCLE   23 ..............................
........................................................................
   1    -12.3975363 -0.123975E+02  0.142E+00    0.20       0.0  T
   2    -12.3964198  0.111646E-02  0.842E-01    0.21       1.0  T
   3    -12.3444389  0.519809E-01  0.214E+00    0.17       1.0  T
   4    -12.3940543 -0.496154E-01  0.441E-01    0.20       1.0  T
   5    -12.3959317 -0.187733E-02  0.426E-01    0.19       1.0  T
   6    -12.3971593 -0.122763E-02  0.288E-01    0.19       1.0  T
   7    -12.3970049  0.154356E-03  0.255E-01    0.19       1.0  T
   8    -12.3977175 -0.712592E-03  0.581E-02    0.20       1.0  T
   9    -12.3977044  0.131681E-04  0.766E-02    0.20       1.0  T
  10    -12.3977098 -0.542282E-05  0.671E-02    0.20       1.0  T
  11    -12.3977284 -0.185732E-04  0.407E-02    0.20       1.0  T
  12    -12.3977152  0.131326E-04  0.493E-02    0.20       1.0  T
  13    -12.3977379 -0.226460E-04  0.854E-03    0.20       3.7  T
  14    -12.3977386 -0.739074E-06  0.153E-03    0.20      20.7  T
  15    -12.3977386 -0.620057E-08  0.628E-04    0.20      50.4  T
  16    -12.3977386  0.435094E-09  0.372E-04    0.20      85.0  T
     SCC iter.                  ...        0 min,  0.002 sec
     gradient                   ...        0 min,  0.000 sec
 * total energy  :   -12.0834566 Eh     change       -0.2043711E-02 Eh
   gradient norm :     0.0399271 Eh/α   predicted    -0.2352437E-02 (  15.11%)
   displ. norm   :     0.5300293 α      lambda       -0.4427129E-02
   maximum displ.:     0.3466645 α      in ANC's #13, #8, #9, ...

........................................................................
.............................. CYCLE   24 ..............................
........................................................................
   1    -12.3937655 -0.123938E+02  0.178E+00    0.17       0.0  T
   2    -12.3916317  0.213385E-02  0.106E+00    0.17       1.0  T
   3    -12.2470479  0.144584E+00  0.308E+00    0.14       1.0  T
   4    -12.3836120 -0.136564E+00  0.921E-01    0.16       1.0  T
   5    -12.3888881 -0.527610E-02  0.679E-01    0.16       1.0  T
   6    -12.3897639 -0.875813E-03  0.637E-01    0.16       1.0  T
   7    -12.3893846  0.379300E-03  0.587E-01    0.16       1.0  T
   8    -12.3926482 -0.326359E-02  0.386E-01    0.16       1.0  T
   9    -12.3935105 -0.862305E-03  0.255E-01    0.16       1.0  T
  10    -12.3935286 -0.180606E-04  0.195E-01    0.16       1.0  T
  11    -12.3939885 -0.459911E-03  0.384E-02    0.17       1.0  T
  12    -12.3939714  0.171371E-04  0.424E-02    0.17       1.0  T
  13    -12.3939940 -0.226692E-04  0.177E-02    0.17       1.8  T
  14    -12.3939909  0.308188E-05  0.193E-02    0.17       1.6  T
  15    -12.3939937 -0.276315E-05  0.865E-03    0.17       3.7  T
  16    -12.3939943 -0.572279E-06  0.136E-03    0.17      23.2  T
  17    -12.3939943 -0.165919E-07  0.891E-04    0.17      35.5  T
  18    -12.3939943 -0.602460E-08  0.476E-04    0.17      66.4  T
     SCC iter.                  ...        0 min,  0.003 sec
     gradient                   ...        0 min,  0.000 sec
 * total energy  :   -12.0852412 Eh     change       -0.1784528E-02 Eh
   gradient norm :     0.0589865 Eh/α   predicted    -0.2835402E-02 (  58.89%)
   displ. norm   :     0.4635449 α      lambda       -0.5067215E-02
   maximum displ.:     0.3649704 α      in ANC's #8, #4, #9, ...

........................................................................
.............................. CYCLE   25 ..............................
........................................................................
   1    -12.3882550 -0.123883E+02  0.178E+00    0.16       0.0  T
   2    -12.3876897  0.565284E-03  0.115E+00    0.16       1.0  T
   3    -12.2659507  0.121739E+00  0.258E+00    0.20       1.0  T
   4    -12.3819376 -0.115987E+00  0.590E-01    0.16       1.0  T
   5    -12.3761582  0.577937E-02  0.115E+00    0.18       1.0  T
   6    -12.3754368  0.721411E-03  0.105E+00    0.18       1.0  T
   7    -12.3839793 -0.854251E-02  0.690E-01    0.18       1.0  T
   8    -12.3860770 -0.209769E-02  0.498E-01    0.17       1.0  T
   9    -12.3873964 -0.131941E-02  0.359E-01    0.17       1.0  T
  10    -12.3876886 -0.292145E-03  0.300E-01    0.17       1.0  T
  11    -12.3880837 -0.395145E-03  0.206E-01    0.17       1.0  T
  12    -12.3884424 -0.358660E-03  0.852E-02    0.17       1.0  T
  13    -12.3885224 -0.800226E-04  0.155E-02    0.17       2.0  T
  14    -12.3885192  0.316079E-05  0.191E-02    0.17       1.7  T
  15    -12.3885237 -0.446728E-05  0.185E-03    0.17      17.1  T
  16    -12.3885237  0.114339E-07  0.126E-03    0.17      25.1  T
  17    -12.3885237 -0.203625E-07  0.199E-04    0.17     159.0  T
  18    -12.3885237  0.165395E-09  0.234E-04    0.17     135.0  T
     SCC iter.                  ...        0 min,  0.003 sec
     gradient                   ...        0 min,  0.001 sec
 * total energy  :   -12.0876167 Eh     change       -0.2375532E-02 Eh
   gradient norm :     0.0379624 Eh/α   predicted    -0.3078021E-02 (  29.57%)
   displ. norm   :     0.2696920 α      lambda       -0.3690388E-02
   maximum displ.:     0.1292407 α      in ANC's #11, #2, #4, ...

........................................................................
.............................. CYCLE   26 ..............................
........................................................................
   1    -12.4098253 -0.124098E+02  0.882E-01    0.16       0.0  T
   2    -12.4001326  0.969270E-02  0.802E-01    0.18       1.0  T
   3    -12.3675624  0.325702E-01  0.180E+00    0.13       1.0  T
   4    -12.4017786 -0.342162E-01  0.686E-01    0.16       1.0  T
   5    -12.4089238 -0.714516E-02  0.405E-01    0.15       1.0  T
   6    -12.4096203 -0.696543E-03  0.282E-01    0.15       1.0  T
   7    -12.4099415 -0.321233E-03  0.240E-01    0.16       1.0  T
   8    -12.4099817 -0.401735E-04  0.206E-01    0.16       1.0  T
   9    -12.4104147 -0.432955E-03  0.555E-02    0.16       1.0  T
  10    -12.4104187 -0.398962E-05  0.464E-02    0.16       1.0  T
  11    -12.4104329 -0.142897E-04  0.204E-02    0.16       1.6  T
  12    -12.4104357 -0.275910E-05  0.104E-02    0.16       3.0  T
  13    -12.4104366 -0.860648E-06  0.638E-04    0.16      49.6  T
  14    -12.4104366  0.283263E-08  0.606E-04    0.16      52.2  T
     SCC iter.                  ...        0 min,  0.002 sec
     gradient                   ...        0 min,  0.000 sec
 * total energy  :   -12.0895072 Eh     change       -0.1890466E-02 Eh
   gradient norm :     0.0160284 Eh/α   predicted    -0.1979402E-02 (   4.70%)
   displ. norm   :     0.5554323 α      lambda       -0.3068824E-02
   maximum displ.:     0.3230971 α      in ANC's #13, #8, #4, ...

........................................................................
.............................. CYCLE   27 ..............................
........................................................................
   1    -12.4033416 -0.124033E+02  0.190E+00    0.12       0.0  T
   2    -12.3996253  0.371632E-02  0.106E+00    0.12       1.0  T
   3    -12.2581516  0.141474E+00  0.320E+00    0.06       1.0  T
   4    -12.3922752 -0.134124E+00  0.105E+00    0.09       1.0  T
   5    -12.3935123 -0.123704E-02  0.875E-01    0.09       1.0  T
   6    -12.3990890 -0.557669E-02  0.693E-01    0.09       1.0  T
   7    -12.3992376 -0.148621E-03  0.642E-01    0.10       1.0  T
   8    -12.4034459 -0.420835E-02  0.184E-01    0.10       1.0  T
   9    -12.4035938 -0.147825E-03  0.136E-01    0.09       1.0  T
  10    -12.4036069 -0.131756E-04  0.105E-01    0.09       1.0  T
  11    -12.4036518 -0.448928E-04  0.891E-02    0.09       1.0  T
  12    -12.4036519 -0.906268E-07  0.891E-02    0.09       1.0  T
  13    -12.4036519  0.360150E-07  0.891E-02    0.09       1.0  T
  14    -12.4036358  0.160803E-04  0.926E-02    0.09       1.0  T
  15    -12.4036390 -0.318936E-05  0.905E-02    0.09       1.0  T
  16    -12.4037073 -0.682863E-04  0.206E-02    0.09       1.5  T
  17    -12.4036941  0.131966E-04  0.456E-02    0.09       1.0  T
  18    -12.4037037 -0.963882E-05  0.195E-02    0.09       1.6  T
  19    -12.4037074 -0.363859E-05  0.349E-03    0.09       9.0  T
  20    -12.4037074 -0.265334E-07  0.261E-03    0.09      12.1  T
  21    -12.4037075 -0.776467E-07  0.316E-04    0.09      99.9  T
  22    -12.4037075  0.336755E-09  0.402E-04    0.09      78.7  T
     SCC iter.                  ...        0 min,  0.004 sec
     gradient                   ...        0 min,  0.001 sec
 * total energy  :   -12.0913520 Eh     change       -0.1844800E-02 Eh
   gradient norm :     0.0348563 Eh/α   predicted    -0.2007789E-02 (   8.84%)
   displ. norm   :     0.3609708 α      lambda       -0.2279589E-02
   maximum displ.:     0.1878849 α      in ANC's #13, #8, #2, ...

........................................................................
.............................. CYCLE   28 ..............................
........................................................................
   1    -12.4037739 -0.124038E+02  0.142E+00    0.07       0.0  T
   2    -12.4005835  0.319040E-02  0.748E-01    0.07       1.0  T
   3    -12.2936926  0.106891E+00  0.258E+00    0.04       1.0  T
   4    -12.3949473 -0.101255E+00  0.101E+00    0.05       1.0  T
   5    -12.3942698  0.677458E-03  0.901E-01    0.05       1.0  T
   6    -12.3969208 -0.265092E-02  0.827E-01    0.05       1.0  T
   7    -12.3959522  0.968555E-03  0.870E-01    0.05       1.0  T
   8    -12.3983245 -0.237229E-02  0.707E-01    0.05       1.0  T
   9    -12.4013364 -0.301187E-02  0.531E-01    0.04       1.0  T
  10    -12.4028915 -0.155517E-02  0.380E-01    0.04       1.0  T
  11    -12.4028292  0.622937E-04  0.359E-01    0.04       1.0  T
  12    -12.4040792 -0.124997E-02  0.265E-01    0.05       1.0  T
  13    -12.4040693  0.995034E-05  0.275E-01    0.05       1.0  T
  14    -12.4040764 -0.716114E-05  0.273E-01    0.05       1.0  T
  15    -12.4040806 -0.419062E-05  0.270E-01    0.05       1.0  T
  16    -12.4040734  0.724933E-05  0.266E-01    0.05       1.0  T
  17    -12.4039308  0.142570E-03  0.272E-01    0.08       1.0  T
  18    -12.4027261  0.120467E-02  0.199E+00    0.18       1.0  T
  19    -12.4041077 -0.138161E-02  0.211E-01    0.06       1.0  T
  20    -12.4041147 -0.697711E-05  0.112E-01    0.08       1.0  T
  21    -12.4040994  0.152778E-04  0.110E-01    0.09       1.0  T
  22    -12.4040846  0.148856E-04  0.111E-01    0.09       1.0  T
  23    -12.4041703 -0.857897E-04  0.607E-02    0.08       1.0  T
  24    -12.4042052 -0.348619E-04  0.125E-01    0.07       1.0  T
  25    -12.4042044  0.822570E-06  0.147E-01    0.07       1.0  T
  26    -12.4042054 -0.996392E-06  0.125E-01    0.07       1.0  T
  27    -12.4042054  0.163861E-07  0.125E-01    0.07       1.0  T
  28    -12.4042060 -0.657992E-06  0.106E-01    0.07       1.0  T
  29    -12.4042077 -0.171575E-05  0.609E-02    0.08       1.0  T
  30    -12.4042095 -0.175191E-05  0.211E-02    0.08       1.5  T
  31    -12.4042098 -0.292452E-06  0.743E-03    0.08       4.3  T
  32    -12.4042098 -0.613420E-07  0.394E-03    0.08       8.0  T
  33    -12.4042099 -0.237498E-07  0.361E-03    0.08       8.8  T
  34    -12.4042099 -0.392441E-08  0.267E-03    0.08      11.9  T
  35    -12.4042099 -0.365248E-08  0.378E-04    0.08      83.7  T
  36    -12.4042099 -0.453740E-09  0.157E-04    0.08     201.8  T
     SCC iter.                  ...        0 min,  0.007 sec
     gradient                   ...        0 min,  0.001 sec
 * total energy  :   -12.0929568 Eh     change       -0.1604817E-02 Eh
   gradient norm :     0.0208394 Eh/α   predicted    -0.1288305E-02 ( -19.72%)
   displ. norm   :     0.5667661 α      lambda       -0.2340475E-02
   maximum displ.:     0.2837619 α      in ANC's #13, #8, #4, ...

........................................................................
.............................. CYCLE   29 ..............................
........................................................................
   1    -12.3986178 -0.123986E+02  0.207E+00    0.09       0.0  T
   2    -12.3894549  0.916292E-02  0.147E+00    0.10       1.0  T
   3    -12.1325682  0.256887E+00  0.346E+00    0.06       1.0  T
   4    -12.3893398 -0.256772E+00  0.759E-01    0.10       1.0  T
   5    -12.3989021 -0.956229E-02  0.230E-01    0.10       1.0  T
   6    -12.3968952  0.200686E-02  0.485E-01    0.11       1.0  T
   7    -12.3982529 -0.135766E-02  0.338E-01    0.11       1.0  T
   8    -12.3985932 -0.340301E-03  0.274E-01    0.11       1.0  T
   9    -12.3992273 -0.634165E-03  0.134E-01    0.11       1.0  T
  10    -12.3990029  0.224380E-03  0.137E-01    0.11       1.0  T
  11    -12.3991828 -0.179905E-03  0.984E-02    0.11       1.0  T
  12    -12.3992765 -0.936585E-04  0.648E-02    0.11       1.0  T
  13    -12.3992821 -0.562569E-05  0.548E-02    0.11       1.0  T
  14    -12.3992939 -0.117531E-04  0.229E-02    0.11       1.4  T
  15    -12.3992949 -0.102427E-05  0.988E-03    0.11       3.2  T
  16    -12.3992953 -0.351094E-06  0.504E-03    0.11       6.3  T
  17    -12.3992955 -0.231937E-06  0.153E-03    0.11      20.6  T
  18    -12.3992955 -0.108981E-07  0.368E-04    0.11      85.9  T
  19    -12.3992955 -0.493118E-09  0.178E-04    0.11     177.2  T
     SCC iter.                  ...        0 min,  0.004 sec
     gradient                   ...        0 min,  0.001 sec
 * total energy  :   -12.0940855 Eh     change       -0.1128708E-02 Eh
   gradient norm :     0.0189461 Eh/α   predicted    -0.1546143E-02 (  36.98%)
   displ. norm   :     0.1892319 α      lambda       -0.1713574E-02
   maximum displ.:     0.1096869 α      in ANC's #2, #16, #15, ...

........................................................................
.............................. CYCLE   30 ..............................
........................................................................
   1    -12.4152473 -0.124152E+02  0.444E-01    0.11       0.0  T
   2    -12.4142149  0.103237E-02  0.356E-01    0.11       1.0  T
   3    -12.4089117  0.530327E-02  0.516E-01    0.11       1.0  T
   4    -12.4096580 -0.746315E-03  0.578E-01    0.10       1.0  T
   5    -12.4151144 -0.545641E-02  0.139E-01    0.11       1.0  T
   6    -12.4154297 -0.315284E-03  0.393E-02    0.11       1.0  T
   7    -12.4154426 -0.129043E-04  0.227E-02    0.11       1.4  T
   8    -12.4154458 -0.323294E-05  0.119E-02    0.11       2.7  T
   9    -12.4154463 -0.489293E-06  0.816E-03    0.11       3.9  T
  10    -12.4154467 -0.408095E-06  0.481E-03    0.11       6.6  T
  11    -12.4154469 -0.209121E-06  0.231E-03    0.11      13.7  T
  12    -12.4154469 -0.238196E-08  0.135E-03    0.11      23.5  T
  13    -12.4154469  0.336675E-07  0.193E-03    0.11      16.4  T
  14    -12.4154469 -0.427926E-07  0.629E-04    0.11      50.3  T
  15    -12.4154469 -0.409290E-08  0.139E-04    0.11     227.9  T
     SCC iter.                  ...        0 min,  0.003 sec
     gradient                   ...        0 min,  0.001 sec
 * total energy  :   -12.0950880 Eh     change       -0.1002543E-02 Eh
   gradient norm :     0.0109007 Eh/α   predicted    -0.8874671E-03 ( -11.48%)
   displ. norm   :     0.4505379 α      lambda       -0.1435136E-02
   maximum displ.:     0.2495627 α      in ANC's #4, #2, #13, ...

[...]
   6    -12.5456245 -0.137124E-05  0.309E-03    1.03      10.2  T
   7    -12.5456247 -0.178712E-06  0.672E-04    1.03      47.0  T
   8    -12.5456247 -0.657172E-09  0.451E-04    1.03      70.1  T
     SCC iter.                  ...        0 min,  0.002 sec
     gradient                   ...        0 min,  0.001 sec
 * total energy  :   -12.2218227 Eh     change       -0.6657723E-05 Eh
   gradient norm :     0.0010519 Eh/α   predicted    -0.2892529E-05 ( -56.55%)
   displ. norm   :     0.1237079 α      lambda       -0.6641146E-05
   maximum displ.:     0.0822502 α      in ANC's #5, #2, #7, ...

........................................................................
.............................. CYCLE  108 ..............................
........................................................................
   1    -12.5457037 -0.125457E+02  0.115E-01    1.03       0.0  T
   2    -12.5457038 -0.140321E-06  0.714E-02    1.03       1.0  T
   3    -12.5456950  0.881620E-05  0.186E-02    1.03       1.7  T
   4    -12.5456945  0.469092E-06  0.179E-02    1.02       1.8  T
   5    -12.5457027 -0.822672E-05  0.805E-03    1.03       3.9  T
   6    -12.5457038 -0.106421E-05  0.326E-03    1.03       9.7  T
   7    -12.5457040 -0.179395E-06  0.123E-03    1.03      25.8  T
   8    -12.5457040 -0.264844E-07  0.576E-04    1.03      54.9  T
   9    -12.5457040 -0.104814E-08  0.211E-04    1.03     149.9  T
     SCC iter.                  ...        0 min,  0.001 sec
     gradient                   ...        0 min,  0.000 sec
 * total energy  :   -12.2218303 Eh     change       -0.7589649E-05 Eh
   gradient norm :     0.0007255 Eh/α   predicted    -0.3342629E-05 ( -55.96%)
   displ. norm   :     0.1321499 α      lambda       -0.5558077E-05
   maximum displ.:     0.0851239 α      in ANC's #5, #2, #7, ...

........................................................................
.............................. CYCLE  109 ..............................
........................................................................
   1    -12.5457700 -0.125458E+02  0.139E-01    1.03       0.0  T
   2    -12.5457702 -0.182927E-06  0.890E-02    1.03       1.0  T
   3    -12.5457442  0.259451E-04  0.320E-02    1.04       1.0  T
   4    -12.5457544 -0.101515E-04  0.234E-02    1.02       1.3  T
   5    -12.5457650 -0.106719E-04  0.144E-02    1.03       2.2  T
   6    -12.5457697 -0.470096E-05  0.649E-03    1.03       4.9  T
   7    -12.5457706 -0.846633E-06  0.131E-03    1.03      24.1  T
   8    -12.5457706 -0.120633E-07  0.613E-04    1.03      51.6  T
   9    -12.5457706 -0.186974E-08  0.257E-04    1.03     123.3  T
     SCC iter.                  ...        0 min,  0.001 sec
     gradient                   ...        0 min,  0.000 sec
 * total energy  :   -12.2218360 Eh     change       -0.5745091E-05 Eh
   gradient norm :     0.0005747 Eh/α   predicted    -0.2800101E-05 ( -51.26%)
   displ. norm   :     0.0949387 α      lambda       -0.2917861E-05
   maximum displ.:     0.0595625 α      in ANC's #5, #2, #7, ...

........................................................................
.............................. CYCLE  110 ..............................
........................................................................
   1    -12.5457869 -0.125458E+02  0.101E-01    1.03       0.0  T
   2    -12.5457869 -0.438178E-07  0.643E-02    1.03       1.0  T
   3    -12.5457616  0.252770E-04  0.282E-02    1.02       1.1  T
   4    -12.5457801 -0.184852E-04  0.162E-02    1.03       1.9  T
   5    -12.5457868 -0.669922E-05  0.725E-03    1.03       4.4  T
   6    -12.5457871 -0.311620E-06  0.219E-03    1.03      14.5  T
   7    -12.5457872 -0.354656E-07  0.714E-04    1.03      44.3  T
   8    -12.5457872 -0.737409E-08  0.463E-04    1.03      68.2  T
     SCC iter.                  ...        0 min,  0.002 sec
     gradient                   ...        0 min,  0.001 sec
 * total energy  :   -12.2218391 Eh     change       -0.3069422E-05 Eh
   gradient norm :     0.0002947 Eh/α   predicted    -0.1466176E-05 ( -52.23%)
   displ. norm   :     0.0718423 α      lambda       -0.2044641E-05
   maximum displ.:     0.0413512 α      in ANC's #5, #7, #2, ...

   *** GEOMETRY OPTIMIZATION CONVERGED AFTER 110 ITERATIONS ***

------------------------------------------------------------------------
 total energy gain   :        -0.9075221 Eh     -569.4787 kcal/mol
 total RMSD          :         3.1597703 a0        1.6721 Å
 total power (kW/mol):       -21.6609004 (step)-4819.1401 (real)
------------------------------------------------------------------------

 ANCopt (total)                0 d,  0 h,  0 min,  0.494 sec
 optimizer setup                ...        0 min,  0.000 sec (  0.012%)
 model hessian                  ...        0 min,  0.000 sec (  0.093%)
 ANC generation                 ...        0 min,  0.000 sec (  0.073%)
 coordinate transformation      ...        0 min,  0.000 sec (  0.054%)
 single point calculation       ...        0 min,  0.477 sec ( 96.443%)
 optimization log               ...        0 min,  0.003 sec (  0.554%)
 hessian update                 ...        0 min,  0.010 sec (  2.066%)
 rational function              ...        0 min,  0.002 sec (  0.356%)

================
 final structure:
================
10
 xtb: 6.5.1 (conda-forge)
Be           0.48922947691522        0.58105657618529       -0.50337362104503
B            1.42959715774543        0.49338531896645        0.84776819205804
C            2.21195471076327        0.43058114556534        1.97731737663332
C            2.94619345733083        0.37584636062669        3.04769597690829
C            3.64845238255481        0.32841031180680        4.09323237052479
C            4.39002164465868        0.28093024090748        5.18562801161224
H            3.94933744255574        0.19240359224090        6.16790848760979
H            5.46824529209439        0.33191095864875        5.13935677736922
H            1.20970875609565        0.92289761294654        5.14398451465821
H            0.67925967928703        1.07857788211124        5.69548191367925

 Bond Distances (Angstroems)
 ---------------------------
Be1-B2=1.6485        B2-Be1=1.6485        B2-C3=1.3755         C3-B2=1.3755         C3-C4=1.2992         C4-C3=1.2992         
C4-C5=1.2604         C5-C4=1.2604         C5-C6=1.3212         C6-C5=1.3212         C6-H7=1.0802         C6-H8=1.0804         
H7-C6=1.0802         H8-C6=1.0804         H9-H10=0.7809        H10-H9=0.7809        
 H  H  Rav=0.7809 sigma=0.0000  Rmin=0.7809  Rmax=0.7809     1
 B  Be Rav=1.6485 sigma=0.0000  Rmin=1.6485  Rmax=1.6485     1
 C  H  Rav=1.0803 sigma=0.0001  Rmin=1.0802  Rmax=1.0804     2
 C  B  Rav=1.3755 sigma=0.0000  Rmin=1.3755  Rmax=1.3755     1
 C  C  Rav=1.2936 sigma=0.0251  Rmin=1.2604  Rmax=1.3212     3

 selected bond angles (degree)
 --------------------
C3-B2-Be1=179.55               C4-C3-B2=179.67                C5-C4-C3=179.38                C6-C5-C4=179.70                
H7-C6-C5=121.72                H8-C6-C5=121.54                H8-C6-H7=116.74                

 selected dihedral angles (degree)
 ---------------------------------
C4-C3-B2-Be1= 35.27           C5-C4-C3-B2= 13.34            C6-C5-C4-C3=223.77            H7-C6-C5-C4=165.20            
H8-C6-C5-C4=345.39            

 CMA Distance (Angstroems)
 ---------------------------
R(CMA):  4.4761
           -------------------------------------------------
          |                Final Singlepoint                |
           -------------------------------------------------

          ...................................................
          :                      SETUP                      :
          :.................................................:
          :  # basis functions                  28          :
          :  # atomic orbitals                  28          :
          :  # shells                           16          :
          :  # electrons                        25          :
          :  max. iterations                   250          :
          :  Hamiltonian                  GFN2-xTB          :
          :  restarted?                      false          :
          :  GBSA solvation                  false          :
          :  PC potential                    false          :
          :  electronic temp.          300.0000000     K    :
          :  accuracy                    1.0000000          :
          :  -> integral cutoff          0.2500000E+02      :
          :  -> integral neglect         0.1000000E-07      :
          :  -> SCF convergence          0.1000000E-05 Eh   :
          :  -> wf. convergence          0.1000000E-03 e    :
          :  Broyden damping             0.4000000          :
          ...................................................

 iter      E             dE          RMSdq      gap      omega  full diag
   1    -12.5457872 -0.125458E+02  0.140E-04    1.03       0.0  T
   2    -12.5457872  0.102412E-08  0.190E-04    1.03     166.7  T
   3    -12.5457872  0.778453E-10  0.198E-04    1.03     160.1  T

   *** convergence criteria satisfied after 3 iterations ***

         #    Occupation            Energy/Eh            Energy/eV
      -------------------------------------------------------------
         1        2.0000           -0.5567655             -15.1504
       ...           ...                  ...                  ...
         7        2.0000           -0.4150849             -11.2950
         8        2.0000           -0.3935636             -10.7094
         9        2.0000           -0.3702372             -10.0747
        10        2.0000           -0.3565451              -9.7021
        11        2.0000           -0.3272754              -8.9056
        12        2.0000           -0.2860646              -7.7842
        13        1.0000           -0.2528418              -6.8802 (HOMO)
        14                         -0.2150290              -5.8512 (LUMO)
        15                         -0.2078193              -5.6550
        16                         -0.1840595              -5.0085
        17                         -0.0952376              -2.5915
        18                         -0.0667356              -1.8160
       ...                                ...                  ...
        28                          1.5134231              41.1823
      -------------------------------------------------------------
                  HL-Gap            0.0378128 Eh            1.0289 eV
             Fermi-level           -0.2516944 Eh           -6.8490 eV

 SCC (total)                   0 d,  0 h,  0 min,  0.002 sec
 SCC setup                      ...        0 min,  0.000 sec (  1.990%)
 Dispersion                     ...        0 min,  0.000 sec (  5.322%)
 classical contributions        ...        0 min,  0.000 sec (  4.485%)
 integral evaluation            ...        0 min,  0.000 sec (  7.269%)
 iterations                     ...        0 min,  0.001 sec ( 35.694%)
 molecular gradient             ...        0 min,  0.001 sec ( 38.347%)
 printout                       ...        0 min,  0.000 sec (  5.812%)

         :::::::::::::::::::::::::::::::::::::::::::::::::::::
         ::                     SUMMARY                     ::
         :::::::::::::::::::::::::::::::::::::::::::::::::::::
         :: total energy             -12.221839083969 Eh    ::
         :: gradient norm              0.000295517088 Eh/a0 ::
         :: HOMO-LUMO gap              1.028937541821 eV    ::
         ::.................................................::
         :: SCC energy               -12.545787182476 Eh    ::
         :: -> isotropic ES           -0.003274792971 Eh    ::
         :: -> anisotropic ES          0.016963097778 Eh    ::
         :: -> anisotropic XC          0.000602978963 Eh    ::
         :: -> dispersion             -0.005531960469 Eh    ::
         :: repulsion energy           0.323961787730 Eh    ::
         :: add. restraining           0.000000000000 Eh    ::
         :: total charge              -0.000000000001 e     ::
         :::::::::::::::::::::::::::::::::::::::::::::::::::::

           -------------------------------------------------
          |                Property Printout                |
           -------------------------------------------------

    * Orbital Energies and Occupations

         #    Occupation            Energy/Eh            Energy/eV
      -------------------------------------------------------------
         1        2.0000           -0.5567655             -15.1504
         2        2.0000           -0.5383829             -14.6501
         3        2.0000           -0.5038222             -13.7097
         4        2.0000           -0.4474302             -12.1752
         5        2.0000           -0.4423382             -12.0366
         6        2.0000           -0.4306946             -11.7198
         7        2.0000           -0.4150849             -11.2950
         8        2.0000           -0.3935636             -10.7094
         9        2.0000           -0.3702372             -10.0747
        10        2.0000           -0.3565451              -9.7021
        11        2.0000           -0.3272754              -8.9056
        12        2.0000           -0.2860646              -7.7842
        13        1.0000           -0.2528418              -6.8802 (HOMO)
        14                         -0.2150290              -5.8512 (LUMO)
        15                         -0.2078193              -5.6550
        16                         -0.1840595              -5.0085
        17                         -0.0952376              -2.5915
        18                         -0.0667356              -1.8160
        19                          0.0291475               0.7931
        20                          0.0420439               1.1441
        21                          0.1547251               4.2103
        22                          0.1666529               4.5349
        23                          0.2821448               7.6776
        24                          0.3662753               9.9669
       ...                                ...                  ...
        28                          1.5134231              41.1823
      -------------------------------------------------------------
                  HL-Gap            0.0378128 Eh            1.0289 eV
             Fermi-level           -0.2516944 Eh           -6.8490 eV

     #   Z          covCN         q      C6AA      α(0)
     1   4 Be       0.912     0.370    66.868    24.526
     2   5 B        1.820    -0.062    46.962    14.436
     3   6 C        1.890    -0.127    34.671     9.510
     4   6 C        1.963    -0.050    32.422     9.195
     5   6 C        1.963    -0.045    32.285     9.176
     6   6 C        2.833    -0.107    30.680     9.077
     7   1 H        0.926     0.014     2.833     2.632
     8   1 H        0.926     0.013     2.844     2.637
     9   1 H        0.800     0.019     2.801     2.630
    10   1 H        0.800    -0.025     3.592     2.978

 Mol. C6AA /au·bohr⁶  :       1894.452882
 Mol. C8AA /au·bohr⁸  :      56135.154386
 Mol. α(0) /au        :         86.797027


Wiberg/Mayer (AO) data.
largest (>0.10) Wiberg bond orders for each atom

 ---------------------------------------------------------------------------
     #   Z sym  total        # sym  WBO       # sym  WBO       # sym  WBO
 ---------------------------------------------------------------------------
     1   4 Be   1.585 --     2 B    1.325     3 C    0.240
     2   5 B    3.401 --     3 C    1.874     1 Be   1.325     5 C    0.180
     3   6 C    3.941 --     2 B    1.874     4 C    1.703     1 Be   0.240
                             6 C    0.115
     4   6 C    3.795 --     5 C    1.984     3 C    1.703
     5   6 C    3.878 --     4 C    1.984     6 C    1.694     2 B    0.180
     6   6 C    3.734 --     5 C    1.694     7 H    0.955     8 H    0.954
                             3 C    0.115
     7   1 H    0.984 --     6 C    0.955
     8   1 H    0.984 --     6 C    0.954
     9   1 H    1.000 --    10 H    0.993
    10   1 H    0.999 --     9 H    0.993
 ---------------------------------------------------------------------------

Topologies differ in total number of bonds
Writing topology from bond orders to xtbtopo.mol

molecular dipole:
                 x           y           z       tot (Debye)
 q only:       -1.585       0.121      -2.407
   full:       -2.247       0.187      -3.351      10.265
molecular quadrupole (traceless):
                xx          xy          yy          xz          yz          zz
 q only:       -4.190      -1.413      12.909     -19.062      -2.891      -8.719
  q+dip:       -5.969      -2.926       6.049     -12.381      -5.040      -0.080
   full:       -6.138      -2.609       9.678     -16.283      -4.759      -3.540

           -------------------------------------------------
          |                Geometry Summary                 |
           -------------------------------------------------

      molecular mass/u    :       71.8979177
   center of mass at/Å    :        2.6393245       0.4189392       2.7643556
  moments of inertia/u·Å² :        0.2011096E+02   0.3747049E+03   0.3945510E+03
rotational constants/cm⁻¹ :        0.8382310E+00   0.4498909E-01   0.4272611E-01

 * 8 selected distances

     #   Z          #   Z                                           value/Å
     1   4 Be       2   5 B                                       1.6485031 (max)
     2   5 B        3   6 C                                       1.3754670
     3   6 C        4   6 C                                       1.2991586
     4   6 C        5   6 C                                       1.2603826
     5   6 C        6   6 C                                       1.3211767
     6   6 C        7   1 H                                       1.0802383
     6   6 C        8   1 H                                       1.0804196
     9   1 H       10   1 H                                       0.7808726 (min)

 * 5 distinct bonds (by element types)

   Z      Z             #   av. dist./Å        max./Å        min./Å
   1 H    1 H           1     0.7808726     0.7808726     0.7808726
   4 Be   5 B           1     1.6485031     1.6485031     1.6485031
   1 H    6 C           2     1.0803289     1.0804196     1.0802383
Note: The following floating-point exceptions are signalling: IEEE_UNDERFLOW_FLAG
normal termination of xtb
   5 B    6 C           1     1.3754670     1.3754670     1.3754670
   6 C    6 C           3     1.2935727     1.3211767     1.2603826


optimized geometry written to: xtbopt.xyz


           -------------------------------------------------
          | TOTAL ENERGY              -12.221839083969 Eh   |
          | GRADIENT NORM               0.000295517088 Eh/α |
          | HOMO-LUMO GAP               1.028937541821 eV   |
           -------------------------------------------------
########################################################################
[WARNING] Runtime exception occurred
-2- restart_readRestart: Dimension missmatch in restart file.
-1- restart_readRestart: Number of electron missmatch in restart file.
########################################################################

------------------------------------------------------------------------
 * finished run on 2025/06/07 at 03:27:50.177     
------------------------------------------------------------------------
 total:
 * wall-time:     0 d,  0 h,  0 min,  0.542 sec
 *  cpu-time:     0 d,  0 h,  0 min,  7.202 sec
 * ratio c/w:    13.277 speedup
 SCF:
 * wall-time:     0 d,  0 h,  0 min,  0.042 sec
 *  cpu-time:     0 d,  0 h,  0 min,  0.524 sec
 * ratio c/w:    12.381 speedup
 ANC optimizer:
 * wall-time:     0 d,  0 h,  0 min,  0.497 sec
 *  cpu-time:     0 d,  0 h,  0 min,  6.642 sec
 * ratio c/w:    13.373 speedup

