      -----------------------------------------------------------      
     |                   =====================                   |     
     |                           x T B                           |     
     |                   =====================                   |     
     |                         S. Grimme                         |     
     |          Mulliken Center for Theoretical Chemistry        |     
     |                    University of Bonn                     |     
      -----------------------------------------------------------      

   * xtb version 6.5.1 (conda-forge) compiled by 'runner@Mac-1657629245115.local' on 2022-07-12

   xtb is free software: you can redistribute it and/or modify it under
   the terms of the GNU Lesser General Public License as published by
   the Free Software Foundation, either version 3 of the License, or
   (at your option) any later version.
   
   xtb is distributed in the hope that it will be useful,
   but WITHOUT ANY WARRANTY; without even the implied warranty of
   MERCHANTABILITY or FITNESS FOR A PARTICULAR PURPOSE.  See the
   GNU Lesser General Public License for more details.
   
   Cite this work as:
   * C. Bannwarth, E. Caldeweyher, S. Ehlert, A. Hansen, P. Pracht,
     J. Seibert, S. Spicher, S. Grimme, WIREs Comput. Mol. Sci., 2020, 11,
     e01493. DOI: 10.1002/wcms.1493
   
   for GFN2-xTB:
   * C. Bannwarth, S. Ehlert and S. Grimme., J. Chem. Theory Comput., 2019,
     15, 1652-1671. DOI: 10.1021/acs.jctc.8b01176
   for GFN1-xTB:
   * S. Grimme, C. Bannwarth, P. Shushkov, J. Chem. Theory Comput., 2017,
     13, 1989-2009. DOI: 10.1021/acs.jctc.7b00118
   for GFN0-xTB:
   * P. Pracht, E. Caldeweyher, S. Ehlert, S. Grimme, ChemRxiv, 2019, preprint.
     DOI: 10.26434/chemrxiv.8326202.v1
   for GFN-FF:
   * S. Spicher and S. Grimme, Angew. Chem. Int. Ed., 2020, 59, 15665-15673.
     DOI: 10.1002/anie.202004239
   
   for ALPB and GBSA implicit solvation:
   * S. Ehlert, M. Stahn, S. Spicher, S. Grimme, J. Chem. Theory Comput.,
     2021, 17, 4250-4261. DOI: 10.1021/acs.jctc.1c00471
   
   for DFT-D4:
   * E. Caldeweyher, C. Bannwarth and S. Grimme, J. Chem. Phys., 2017,
     147, 034112. DOI: 10.1063/1.4993215
   * E. Caldeweyher, S. Ehlert, A. Hansen, H. Neugebauer, S. Spicher,
     C. Bannwarth and S. Grimme, J. Chem. Phys., 2019, 150, 154122.
     DOI: 10.1063/1.5090222
   * E. Caldeweyher, J.-M. Mewes, S. Ehlert and S. Grimme, Phys. Chem. Chem. Phys.
     2020, 22, 8499-8512. DOI: 10.1039/D0CP00502A
   
   for sTDA-xTB:
   * S. Grimme and C. Bannwarth, J. Chem. Phys., 2016, 145, 054103.
     DOI: 10.1063/1.4959605
   
   in the mass-spec context:
   * V. Asgeirsson, C. Bauer and S. Grimme, Chem. Sci., 2017, 8, 4879.
     DOI: 10.1039/c7sc00601b
   * J. Koopman and S. Grimme, ACS Omega 2019, 4, 12, 15120-15133.
     DOI: 10.1021/acsomega.9b02011
   
   for metadynamics refer to:
   * S. Grimme, J. Chem. Theory Comput., 2019, 155, 2847-2862
     DOI: 10.1021/acs.jctc.9b00143
   
   for SPH calculations refer to:
   * S. Spicher and S. Grimme, J. Chem. Theory Comput., 2021, 17, 1701-1714
     DOI: 10.1021/acs.jctc.0c01306
   
   with help from (in alphabetical order)
   P. Atkinson, C. Bannwarth, F. Bohle, G. Brandenburg, E. Caldeweyher
   M. Checinski, S. Dohm, S. Ehlert, S. Ehrlich, I. Gerasimov, C. Hölzer
   A. Katbashev, J. Koopman, C. Lavigne, S. Lehtola, F. März, M. Müller,
   F. Musil, H. Neugebauer, J. Pisarek, C. Plett, P. Pracht, F. Pultar,
   J. Seibert, P. Shushkov, S. Spicher, M. Stahn, M. Steiner, T. Strunk,
   J. Stückrath, T. Rose, and J. Unsleber
   
 * started run on 2025/06/07 at 03:27:48.472     

           -------------------------------------------------
          |                Calculation Setup                |
           -------------------------------------------------

          program call               : xtb BBeC3H4.xyz --gfn 2 --opt
          coordinate file            : BBeC3H4.xyz
          omp threads                :                    16

   ID    Z sym.   atoms
    1    4 Be     1
    2    5 B      2
    3    6 C      3-5
    4    1 H      6-9

molecular fragmentation (1/2 indicates fragments):
122222222
# atoms in fragment 1/2:     1     8
 fragment masses (1/2) :        9.01       50.87
CMA distance (Bohr)    :   7.302
constraining FC (au)   :  0.0500

           -------------------------------------------------
          |                 G F N 2 - x T B                 |
           -------------------------------------------------

        Reference                      10.1021/acs.jctc.8b01176
      * Hamiltonian:
        H0-scaling (s, p, d)           1.850000    2.230000    2.230000
        zeta-weighting                 0.500000
      * Dispersion:
        s8                             2.700000
        a1                             0.520000
        a2                             5.000000
        s9                             5.000000
      * Repulsion:
        kExp                           1.500000    1.000000
        rExp                           1.000000
      * Coulomb:
        alpha                          2.000000
        third order                    shell-resolved
        anisotropic                    true
        a3                             3.000000
        a5                             4.000000
        cn-shift                       1.200000
        cn-exp                         4.000000
        max-rad                        5.000000


          ...................................................
          :                      SETUP                      :
          :.................................................:
          :  # basis functions                  24          :
          :  # atomic orbitals                  24          :
          :  # shells                           14          :
          :  # electrons                        21          :
          :  max. iterations                   250          :
          :  Hamiltonian                  GFN2-xTB          :
          :  restarted?                      false          :
          :  GBSA solvation                  false          :
          :  PC potential                    false          :
          :  electronic temp.          300.0000000     K    :
          :  accuracy                    1.0000000          :
          :  -> integral cutoff          0.2500000E+02      :
          :  -> integral neglect         0.1000000E-07      :
          :  -> SCF convergence          0.1000000E-05 Eh   :
          :  -> wf. convergence          0.1000000E-03 e    :
          :  Broyden damping             0.4000000          :
          ...................................................

 iter      E             dE          RMSdq      gap      omega  full diag
   1     13.3635235  0.133635E+02  0.240E+01    0.31       0.0  T
   2     -6.2667152 -0.196302E+02  0.166E+01    1.10       1.0  T
   3     -5.6782089  0.588506E+00  0.153E+01    0.55       1.0  T
   4     -7.0381979 -0.135999E+01  0.104E+01    0.78       1.0  T
   5     -7.7123093 -0.674111E+00  0.791E+00    0.15       1.0  T
   6     -8.0776237 -0.365314E+00  0.932E+00    0.53       1.0  T
   7     -8.2111988 -0.133575E+00  0.811E+00    0.28       1.0  T
   8     -7.8140503  0.397148E+00  0.851E+00    0.29       1.0  T
   9     -8.3077350 -0.493685E+00  0.850E+00    0.26       1.0  T
  10     -7.3424215  0.965313E+00  0.128E+01    0.37       1.0  T
  11     13.8308303  0.211733E+02  0.265E+01    0.49       1.0  T
  12     -7.6175131 -0.214483E+02  0.135E+01    0.36       1.0  T
  13     -9.3247405 -0.170723E+01  0.661E+00    0.27       1.0  T
  14     -9.0206455  0.304095E+00  0.400E+00    0.10       1.0  T
  15     -8.5313425  0.489303E+00  0.427E+00    0.29       1.0  T
  16      8.0120138  0.165434E+02  0.180E+01    0.44       1.0  T
  17     -1.3433392 -0.935535E+01  0.134E+01    0.31       1.0  T
  18     -0.9146563  0.428683E+00  0.136E+01    0.31       1.0  T
  19     -4.4185088 -0.350385E+01  0.130E+01    0.25       1.0  T
  20      2.9624315  0.738094E+01  0.153E+01    0.38       1.0  T
  21      6.4562112  0.349378E+01  0.169E+01    0.42       1.0  T
  22      6.7339869  0.277776E+00  0.171E+01    0.43       1.0  T
  23      9.4800817  0.274609E+01  0.189E+01    0.44       1.0  T
  24     -8.9659545 -0.184460E+02  0.505E+00    0.25       1.0  T
  25     -8.8737190  0.922355E-01  0.513E+00    0.29       1.0  T
  26     -8.7716141  0.102105E+00  0.448E+00    0.30       1.0  T
  27     -9.0922326 -0.320619E+00  0.443E+00    0.24       1.0  T
  28     -9.0937889 -0.155625E-02  0.441E+00    0.24       1.0  T
  29     -9.0216129  0.721760E-01  0.431E+00    0.26       1.0  T
  30     -9.0696171 -0.480042E-01  0.419E+00    0.26       1.0  T
  31     -9.0560718  0.135453E-01  0.389E+00    0.27       1.0  T
  32     -9.1224815 -0.664097E-01  0.345E+00    0.27       1.0  T
  33     -9.1343178 -0.118363E-01  0.327E+00    0.26       1.0  T
  34     -9.1756687 -0.413508E-01  0.320E+00    0.26       1.0  T
  35     -9.1572418  0.184269E-01  0.323E+00    0.26       1.0  T
  36     -9.1551061  0.213571E-02  0.313E+00    0.25       1.0  T
  37     -9.1404395  0.146666E-01  0.305E+00    0.25       1.0  T
  38     -9.2572336 -0.116794E+00  0.271E+00    0.22       1.0  T
  39     -9.3539243 -0.966907E-01  0.274E+00    0.16       1.0  T
  40     -9.3628408 -0.891651E-02  0.276E+00    0.16       1.0  T
  41     -9.3679356 -0.509477E-02  0.279E+00    0.15       1.0  T
  42     -9.2798315  0.881041E-01  0.263E+00    0.21       1.0  T
  43     -9.2543975  0.254341E-01  0.263E+00    0.21       1.0  T
  44     -9.2000259  0.543715E-01  0.269E+00    0.21       1.0  T
  45     -9.1697552  0.302707E-01  0.273E+00    0.21       1.0  T
  46     -9.1675388  0.221633E-02  0.275E+00    0.20       1.0  T
  47     -9.1603709  0.716799E-02  0.279E+00    0.20       1.0  T
  48     -9.1944687 -0.340978E-01  0.259E+00    0.21       1.0  T
  49     -9.2257345 -0.312659E-01  0.243E+00    0.22       1.0  T
  50     -9.2381567 -0.124221E-01  0.237E+00    0.22       1.0  T
  51     -9.2705656 -0.324089E-01  0.219E+00    0.23       1.0  T
  52     -9.3022971 -0.317315E-01  0.211E+00    0.22       1.0  T
  53     -9.3182241 -0.159270E-01  0.212E+00    0.21       1.0  T
  54     -9.3015858  0.166383E-01  0.215E+00    0.23       1.0  T
  55     -9.2951617  0.642412E-02  0.215E+00    0.23       1.0  T
  56     -9.3140837 -0.189221E-01  0.210E+00    0.22       1.0  T
  57     -9.3226182 -0.853445E-02  0.209E+00    0.21       1.0  T
  58     -9.3183156  0.430261E-02  0.210E+00    0.22       1.0  T
  59     -9.3095435  0.877208E-02  0.212E+00    0.22       1.0  T
  60     -9.3055841  0.395940E-02  0.213E+00    0.23       1.0  T
  61     -9.3070554 -0.147129E-02  0.212E+00    0.23       1.0  T
  62     -9.3099120 -0.285663E-02  0.211E+00    0.22       1.0  T
  63     -9.3109528 -0.104080E-02  0.210E+00    0.22       1.0  T
  64     -9.3102786  0.674245E-03  0.211E+00    0.22       1.0  T
  65     -9.3116515 -0.137294E-02  0.211E+00    0.22       1.0  T
  66     -9.3164439 -0.479243E-02  0.209E+00    0.22       1.0  T
  67     -9.3233572 -0.691330E-02  0.206E+00    0.22       1.0  T
  68     -9.3285281 -0.517090E-02  0.203E+00    0.22       1.0  T
  69     -9.3276373  0.890883E-03  0.202E+00    0.23       1.0  T
  70     -9.3203844  0.725287E-02  0.200E+00    0.24       1.0  T
  71     -9.3168587  0.352572E-02  0.197E+00    0.25       1.0  T
  72     -9.3256371 -0.877844E-02  0.187E+00    0.24       1.0  T
  73     -9.3360667 -0.104296E-01  0.184E+00    0.23       1.0  T
  74     -9.3416508 -0.558410E-02  0.186E+00    0.23       1.0  T
  75     -9.3396767  0.197413E-02  0.192E+00    0.24       1.0  T
  76     -9.3356275  0.404917E-02  0.195E+00    0.24       1.0  T
  77     -9.3495984 -0.139709E-01  0.197E+00    0.23       1.0  T
  78     -9.3553254 -0.572700E-02  0.200E+00    0.22       1.0  T
  79     -9.3552786  0.468139E-04  0.200E+00    0.23       1.0  T
  80     -9.3545129  0.765657E-03  0.198E+00    0.23       1.0  T
  81     -9.3603095 -0.579661E-02  0.192E+00    0.23       1.0  T
  82     -9.3803435 -0.200340E-01  0.191E+00    0.21       1.0  T
  83     -9.3840847 -0.374124E-02  0.191E+00    0.21       1.0  T
  84     -9.3840741  0.106178E-04  0.191E+00    0.21       1.0  T
  85     -9.3767472  0.732692E-02  0.169E+00    0.22       1.0  T
  86     -9.3848662 -0.811899E-02  0.157E+00    0.22       1.0  T
  87     -9.3992807 -0.144145E-01  0.141E+00    0.21       1.0  T
  88     -9.4070149 -0.773424E-02  0.134E+00    0.21       1.0  T
  89     -9.4061768  0.838099E-03  0.124E+00    0.21       1.0  T
  90     -9.4083901 -0.221334E-02  0.106E+00    0.21       1.0  T
  91     -9.4103649 -0.197473E-02  0.885E-01    0.21       1.0  T
  92     -9.4115544 -0.118955E-02  0.735E-01    0.21       1.0  T
  93     -9.4117619 -0.207530E-03  0.523E-01    0.22       1.0  T
  94     -9.4130567 -0.129479E-02  0.391E-01    0.22       1.0  T
  95     -9.4137566 -0.699859E-03  0.362E-01    0.22       1.0  T
  96     -9.4130327  0.723879E-03  0.175E-01    0.22       1.0  T
  97     -9.4137635 -0.730810E-03  0.939E-02    0.22       1.0  T
  98     -9.4139648 -0.201293E-03  0.182E-01    0.22       1.0  T
  99     -9.4139798 -0.150158E-04  0.115E-01    0.22       1.0  T
 100     -9.4139748  0.505631E-05  0.142E-01    0.22       1.0  T
 101     -9.4139858 -0.109964E-04  0.128E-01    0.22       1.0  T
 102     -9.4139555  0.302631E-04  0.118E-01    0.22       1.0  T
 103     -9.4139949 -0.393951E-04  0.668E-02    0.22       1.0  T
 104     -9.4139885  0.645257E-05  0.623E-02    0.22       1.0  T
 105     -9.4140081 -0.195972E-04  0.301E-02    0.22       1.1  T
 106     -9.4140040  0.404046E-05  0.348E-02    0.22       1.0  T
 107     -9.4140070 -0.300903E-05  0.303E-02    0.22       1.1  T
 108     -9.4140069  0.102041E-06  0.292E-02    0.22       1.1  T
 109     -9.4140104 -0.345810E-05  0.154E-02    0.22       2.2  T
 110     -9.4140110 -0.618987E-06  0.772E-03    0.22       4.3  T
 111     -9.4140113 -0.337266E-06  0.382E-03    0.22       8.7  T
 112     -9.4140114 -0.775364E-07  0.397E-03    0.22       8.4  T
 113     -9.4140114  0.206249E-07  0.189E-03    0.22      17.7  T
 114     -9.4140115 -0.803444E-07  0.111E-03    0.22      30.1  T
 115     -9.4140115 -0.651482E-09  0.235E-04    0.22     141.6  T
 116     -9.4140115 -0.118167E-09  0.175E-04    0.22     190.3  T

   *** convergence criteria satisfied after 116 iterations ***

         #    Occupation            Energy/Eh            Energy/eV
      -------------------------------------------------------------
         1        2.0000           -0.6206322             -16.8883
       ...           ...                  ...                  ...
         5        2.0000           -0.3822875             -10.4026
         6        2.0000           -0.3675934             -10.0027
         7        2.0000           -0.3293383              -8.9618
         8        2.0000           -0.3197521              -8.7009
         9        2.0000           -0.3069368              -8.3522
        10        1.9997           -0.2795289              -7.6064
        11        0.9863           -0.2641336              -7.1874 (HOMO)
        12        0.0140           -0.2560526              -6.9675 (LUMO)
        13        0.0000           -0.2459106              -6.6916
        14                         -0.2145178              -5.8373
        15                         -0.2059067              -5.6030
        16                         -0.1981963              -5.3932
       ...                                ...                  ...
        24                          0.4656462              12.6709
      -------------------------------------------------------------
                  HL-Gap            0.0080809 Eh            0.2199 eV
             Fermi-level           -0.2659622 Eh           -7.2372 eV

 SCC (total)                   0 d,  0 h,  0 min,  0.034 sec
 SCC setup                      ...        0 min,  0.000 sec (  0.366%)
 Dispersion                     ...        0 min,  0.000 sec (  0.434%)
 classical contributions        ...        0 min,  0.000 sec (  0.185%)
 integral evaluation            ...        0 min,  0.000 sec (  0.632%)
 iterations                     ...        0 min,  0.033 sec ( 97.306%)
 molecular gradient             ...        0 min,  0.000 sec (  0.945%)
 printout                       ...        0 min,  0.000 sec (  0.091%)

         :::::::::::::::::::::::::::::::::::::::::::::::::::::
         ::                     SUMMARY                     ::
         :::::::::::::::::::::::::::::::::::::::::::::::::::::
         :: total energy              -9.358616946235 Eh    ::
         :: gradient norm              0.311038223204 Eh/a0 ::
         :: HOMO-LUMO gap              0.219893525660 eV    ::
         ::.................................................::
         :: SCC energy                -9.414011470774 Eh    ::
         :: -> isotropic ES           -0.050689171856 Eh    ::
         :: -> anisotropic ES          0.011444304852 Eh    ::
         :: -> anisotropic XC         -0.009974546792 Eh    ::
         :: -> dispersion             -0.006976019111 Eh    ::
         :: repulsion energy           0.055390258775 Eh    ::
         :: add. restraining           0.000000000000 Eh    ::
         :: total charge               0.000000000001 e     ::
         :::::::::::::::::::::::::::::::::::::::::::::::::::::

      ----------------------------------------------------------- 
     |                   =====================                   |
     |                        A N C O P T                        |
     |                   =====================                   |
     |               Approximate Normal Coordinate               |
     |                Rational Function Optimizer                |
      ----------------------------------------------------------- 

          ...................................................
          :                      SETUP                      :
          :.................................................:
          :   optimization level            normal          :
          :   max. optcycles                   200          :
          :   ANC micro-cycles                  20          :
          :   degrees of freedom                21          :
          :.................................................:
          :   RF solver                   davidson          :
          :   write xtbopt.log                true          :
          :   linear?                        false          :
          :   energy convergence         0.5000000E-05 Eh   :
          :   grad. convergence          0.1000000E-02 Eh/α :
          :   maximium RF displ.         1.0000000          :
          :   Hlow (freq-cutoff)         0.1000000E-01      :
          :   Hmax (freq-cutoff)         5.0000000          :
          :   S6 in model hess.         20.0000000          :
          ...................................................

generating ANC from model Hessian ...
Using Lindh-Hessian (1995)
 Shifting diagonal of input Hessian by    1.0293055047408324E-002
 Lowest  eigenvalues of input Hessian
    0.010000    0.000000    0.000000    0.000000    0.000000    0.000000
    0.000000    0.010913    0.011254    0.011645    0.014651    0.019091
    0.020024    0.028137    0.029256    0.036721    0.037625    0.043959
 Highest eigenvalues
    0.219615    0.247916    0.264850    0.280511    0.306590    0.343026


........................................................................
.............................. CYCLE    1 ..............................
........................................................................
   1     -9.4140115 -0.941401E+01  0.229E-04    0.22       0.0  T
   2     -9.4140112  0.236384E-06  0.466E-03    0.22       7.2  T
   3     -9.4140115 -0.235549E-06  0.380E-04    0.22      87.7  T
   4     -9.4140115 -0.277222E-09  0.348E-04    0.22      95.7  T
     SCC iter.                  ...        0 min,  0.001 sec
     gradient                   ...        0 min,  0.001 sec
 * total energy  :    -9.3586169 Eh     change        0.1137899E-08 Eh
   gradient norm :     0.3106832 Eh/α   predicted     0.0000000E+00 (-100.00%)
   displ. norm   :     0.8260002 α      lambda       -0.2452537E+00
   maximum displ.:     0.3118102 α      in ANC's #9, #17, #7, ...

........................................................................
.............................. CYCLE    2 ..............................
........................................................................
   1     -9.5464690 -0.954647E+01  0.269E+00    0.18       0.0  T
   2     -8.8048047  0.741664E+00  0.729E+00    0.36       1.0  T
   3     -9.5646647 -0.759860E+00  0.194E+00    0.36       1.0  T
   4     -9.2336280  0.331037E+00  0.516E+00    0.37       1.0  T
   5     -9.5430144 -0.309386E+00  0.209E+00    0.42       1.0  T
   6     -9.5491187 -0.610429E-02  0.165E+00    0.33       1.0  T
   7     -9.5830674 -0.339487E-01  0.779E-01    0.26       1.0  T
   8     -9.5829257  0.141676E-03  0.688E-01    0.29       1.0  T
   9     -9.5801740  0.275173E-02  0.838E-01    0.28       1.0  T
  10     -9.5868552 -0.668117E-02  0.192E-01    0.25       1.0  T
  11     -9.5857574  0.109777E-02  0.405E-01    0.23       1.0  T
  12     -9.5863541 -0.596654E-03  0.245E-01    0.26       1.0  T
  13     -9.5866968 -0.342710E-03  0.160E-01    0.26       1.0  T
  14     -9.5869021 -0.205317E-03  0.594E-02    0.26       1.0  T
  15     -9.5869214 -0.193338E-04  0.285E-02    0.25       1.2  T
  16     -9.5869271 -0.566819E-05  0.654E-03    0.25       5.1  T
  17     -9.5869266  0.506215E-06  0.935E-03    0.25       3.6  T
  18     -9.5869269 -0.292500E-06  0.677E-03    0.25       4.9  T
  19     -9.5869273 -0.410871E-06  0.174E-03    0.25      19.2  T
  20     -9.5869273 -0.320255E-07  0.493E-04    0.25      67.6  T
  21     -9.5869273  0.170497E-08  0.652E-04    0.25      51.1  T
     SCC iter.                  ...        0 min,  0.004 sec
     gradient                   ...        0 min,  0.000 sec
 * total energy  :    -9.5430979 Eh     change       -0.1844810E+00 Eh
   gradient norm :     0.2499698 Eh/α   predicted    -0.2062922E+00 (  11.82%)
   displ. norm   :     0.9199555 α      lambda       -0.2262749E+00
   maximum displ.:     0.5646120 α      in ANC's #18, #15, #17, ...

........................................................................
.............................. CYCLE    3 ..............................
........................................................................
   1     -9.7875648 -0.978756E+01  0.309E+00    0.31       0.0  T
   2     -9.0982300  0.689335E+00  0.733E+00    1.23       1.0  T
   3     -9.8135434 -0.715313E+00  0.212E+00    0.52       1.0  T
   4     -9.7551037  0.584396E-01  0.301E+00    0.01       1.0  T
   5     -9.8228424 -0.677386E-01  0.135E+00    0.27       1.0  T
   6     -9.8041533  0.186891E-01  0.186E+00    0.03       1.0  T
   7     -9.8125222 -0.836886E-02  0.148E+00    0.03       1.0  T
   8     -9.8326524 -0.201303E-01  0.103E+00    0.25       1.0  T
   9     -9.8298690  0.278339E-02  0.112E+00    0.32       1.0  T
  10     -9.8299833 -0.114259E-03  0.111E+00    0.32       1.0  T
  11     -9.8327038 -0.272051E-02  0.916E-01    0.26       1.0  T
  12     -9.8353506 -0.264676E-02  0.748E-01    0.22       1.0  T
  13     -9.8372463 -0.189576E-02  0.627E-01    0.18       1.0  T
  14     -9.8391594 -0.191305E-02  0.452E-01    0.15       1.0  T
  15     -9.8406622 -0.150282E-02  0.202E-01    0.13       1.0  T
  16     -9.8410038 -0.341644E-03  0.976E-02    0.12       1.0  T
  17     -9.8410578 -0.539257E-04  0.810E-02    0.10       1.0  T
  18     -9.8411173 -0.595264E-04  0.440E-03    0.11       7.6  T
  19     -9.8410964  0.208571E-04  0.469E-02    0.10       1.0  T
  20     -9.8411166 -0.201567E-04  0.950E-03    0.11       3.5  T
  21     -9.8411171 -0.502231E-06  0.532E-03    0.11       6.3  T
  22     -9.8411173 -0.239466E-06  0.148E-03    0.11      22.5  T
  23     -9.8411174 -0.196718E-07  0.797E-04    0.11      41.8  T
  24     -9.8411174 -0.151485E-08  0.576E-04    0.11      57.9  T
     SCC iter.                  ...        0 min,  0.005 sec
     gradient                   ...        0 min,  0.001 sec
 * total energy  :    -9.7016792 Eh     change       -0.1585812E+00 Eh
   gradient norm :     0.1567054 Eh/α   predicted    -0.2088877E+00 (  31.72%)
   displ. norm   :     0.7623258 α      lambda       -0.1011134E+00
   maximum displ.:     0.4236459 α      in ANC's #12, #11, #15, ...

........................................................................
.............................. CYCLE    4 ..............................
........................................................................
   1     -9.8755968 -0.987560E+01  0.263E+00    0.19       0.0  T
   2     -9.4694733  0.406123E+00  0.621E+00    0.23       1.0  T
   3     -9.8360596 -0.366586E+00  0.285E+00    0.83       1.0  T
   4     -9.8169254  0.191341E-01  0.232E+00    0.34       1.0  T
   5     -9.8571734 -0.402479E-01  0.206E+00    0.47       1.0  T
   6     -9.8800826 -0.229092E-01  0.139E+00    0.52       1.0  T
   7     -9.8840218 -0.393918E-02  0.112E+00    0.48       1.0  T
   8     -9.8879861 -0.396430E-02  0.955E-01    0.41       1.0  T
   9     -9.8917173 -0.373119E-02  0.650E-01    0.33       1.0  T
  10     -9.8914814  0.235816E-03  0.682E-01    0.34       1.0  T
  11     -9.8924940 -0.101261E-02  0.554E-01    0.31       1.0  T
  12     -9.8923469  0.147177E-03  0.578E-01    0.32       1.0  T
  13     -9.8936899 -0.134300E-02  0.318E-01    0.29       1.0  T
  14     -9.8944063 -0.716439E-03  0.849E-02    0.25       1.0  T
  15     -9.8943975  0.883095E-05  0.921E-02    0.26       1.0  T
  16     -9.8942210  0.176489E-03  0.199E-01    0.24       1.0  T
  17     -9.8944008 -0.179837E-03  0.639E-02    0.25       1.0  T
  18     -9.8944277 -0.268483E-04  0.144E-02    0.26       2.3  T
  19     -9.8944266  0.106503E-05  0.175E-02    0.26       1.9  T
  20     -9.8944289 -0.230998E-05  0.785E-03    0.26       4.2  T
  21     -9.8944294 -0.448683E-06  0.261E-03    0.26      12.8  T
  22     -9.8944294 -0.244075E-07  0.199E-03    0.26      16.7  T
  23     -9.8944294 -0.201445E-07  0.399E-04    0.26      83.5  T
  24     -9.8944294 -0.220272E-09  0.262E-04    0.26     127.2  T
     SCC iter.                  ...        0 min,  0.005 sec
     gradient                   ...        0 min,  0.000 sec
 * total energy  :    -9.7408846 Eh     change       -0.3920545E-01 Eh
   gradient norm :     0.2295055 Eh/α   predicted    -0.7993723E-01 ( 103.89%)
   displ. norm   :     0.6821985 α      lambda       -0.9873758E-01
   maximum displ.:     0.3701085 α      in ANC's #12, #9, #6, ...

........................................................................
.............................. CYCLE    5 ..............................
........................................................................
   1     -9.8656343 -0.986563E+01  0.348E+00    0.15       0.0  T
   2     -9.7547850  0.110849E+00  0.282E+00    0.17       1.0  T
   3     -9.4342586  0.320526E+00  0.773E+00    0.18       1.0  T
   4     -9.7697096 -0.335451E+00  0.311E+00    0.23       1.0  T
   5     -9.5499384  0.219771E+00  0.640E+00    0.24       1.0  T
   6     -9.8742853 -0.324347E+00  0.146E+00    0.10       1.0  T
   7     -9.8862917 -0.120064E-01  0.853E-01    0.17       1.0  T
   8     -9.8857958  0.495844E-03  0.881E-01    0.19       1.0  T
   9     -9.8857905  0.536938E-05  0.876E-01    0.20       1.0  T
  10     -9.8875430 -0.175255E-02  0.453E-01    0.14       1.0  T
  11     -9.8875456 -0.254192E-05  0.451E-01    0.14       1.0  T
  12     -9.8781920  0.935355E-02  0.118E+00    0.07       1.0  T
  13     -9.8825111 -0.431912E-02  0.866E-01    0.09       1.0  T
  14     -9.8868960 -0.438484E-02  0.485E-01    0.12       1.0  T
  15     -9.8863057  0.590315E-03  0.620E-01    0.12       1.0  T
  16     -9.8869441 -0.638409E-03  0.518E-01    0.13       1.0  T
  17     -9.8875408 -0.596717E-03  0.527E-01    0.16       1.0  T
  18     -9.8877171 -0.176273E-03  0.429E-01    0.16       1.0  T
  19     -9.8877206 -0.349602E-05  0.425E-01    0.16       1.0  T
  20     -9.8877510 -0.304313E-04  0.396E-01    0.16       1.0  T
  21     -9.8876648  0.862032E-04  0.373E-01    0.15       1.0  T
  22     -9.8877067 -0.419212E-04  0.360E-01    0.16       1.0  T
  23     -9.8876976  0.913784E-05  0.282E-01    0.14       1.0  T
  24     -9.8878334 -0.135801E-03  0.266E-01    0.14       1.0  T
  25     -9.8877710  0.623380E-04  0.172E-01    0.16       1.0  T
  26     -9.8877608  0.102572E-04  0.180E-01    0.16       1.0  T
  27     -9.8878195 -0.587416E-04  0.155E-01    0.16       1.0  T
  28     -9.8878195  0.400408E-07  0.168E-01    0.16       1.0  T
  29     -9.8877898  0.297228E-04  0.190E-01    0.18       1.0  T
  30     -9.8877728  0.169653E-04  0.231E-01    0.19       1.0  T
  31     -9.8877949 -0.221365E-04  0.193E-01    0.18       1.0  T
  32     -9.8878479 -0.529978E-04  0.346E-01    0.16       1.0  T
  33     -9.8878731 -0.251786E-04  0.457E-01    0.16       1.0  T
  34     -9.8878759 -0.275255E-05  0.460E-01    0.16       1.0  T
  35     -9.8878650  0.108392E-04  0.486E-01    0.16       1.0  T
  36     -9.8878724 -0.740752E-05  0.475E-01    0.16       1.0  T
  37     -9.8878867 -0.142794E-04  0.482E-01    0.16       1.0  T
  38     -9.8877059  0.180765E-03  0.598E-01    0.17       1.0  T
  39     -9.8872167  0.489277E-03  0.114E+00    0.21       1.0  T
  40     -9.8868560  0.360701E-03  0.141E+00    0.22       1.0  T
  41     -9.8868504  0.556919E-05  0.140E+00    0.22       1.0  T
  42     -9.8869599 -0.109520E-03  0.133E+00    0.21       1.0  T
  43     -9.8862176  0.742272E-03  0.265E+00    0.30       1.0  T
  44     -9.8842954  0.192220E-02  0.450E+00    0.36       1.0  T
  45     -9.8802300  0.406548E-02  0.506E+00    0.31       1.0  T
  46     -9.8791321  0.109785E-02  0.499E+00    0.30       1.0  T
  47     -9.8795307 -0.398598E-03  0.500E+00    0.30       1.0  T
  48     -9.8797234 -0.192655E-03  0.718E+00    0.41       1.0  T
  49     -9.8738055  0.591784E-02  0.825E+00    0.38       1.0  T
  50     -9.8732031  0.602462E-03  0.829E+00    0.38       1.0  T
  51     -9.8737736 -0.570518E-03  0.904E+00    0.41       1.0  T
  52     -9.8750917 -0.131812E-02  0.883E+00    0.42       1.0  T
  53     -9.8751152 -0.235312E-04  0.821E+00    0.39       1.0  T
  54     -9.8785716 -0.345636E-02  0.667E+00    0.37       1.0  T
  55     -9.8822125 -0.364089E-02  0.501E+00    0.34       1.0  T
  56     -9.8858702 -0.365777E-02  0.255E+00    0.26       1.0  T
  57     -9.8877797 -0.190942E-02  0.294E-01    0.19       1.0  T
  58     -9.8869664  0.813311E-03  0.960E-01    0.16       1.0  T
  59     -9.8875118 -0.545491E-03  0.701E-01    0.20       1.0  T
  60     -9.8877022 -0.190383E-03  0.511E-01    0.23       1.0  T
  61     -9.8875015  0.200718E-03  0.620E-01    0.21       1.0  T
  62     -9.8877685 -0.267001E-03  0.289E-01    0.25       1.0  T
  63     -9.8877228  0.457365E-04  0.266E-01    0.24       1.0  T
  64     -9.8876880  0.348015E-04  0.312E-01    0.22       1.0  T
  65     -9.8880387 -0.350722E-03  0.855E-01    0.29       1.0  T
  66     -9.8875512  0.487489E-03  0.257E+00    0.40       1.0  T
  67     -9.8868170  0.734203E-03  0.422E+00    0.49       1.0  T
  68     -9.8864058  0.411184E-03  0.491E+00    0.52       1.0  T
  69     -9.8865144 -0.108575E-03  0.473E+00    0.51       1.0  T
  70     -9.8863191  0.195276E-03  0.491E+00    0.53       1.0  T
  71     -9.8873074 -0.988239E-03  0.128E+00    0.29       1.0  T
  72     -9.8878232 -0.515883E-03  0.188E-01    0.21       1.0  T
  73     -9.8880871 -0.263821E-03  0.157E-01    0.22       1.0  T
  74     -9.8881029 -0.158697E-04  0.289E-01    0.21       1.0  T
  75     -9.8880913  0.116630E-04  0.342E-01    0.21       1.0  T
  76     -9.8880875  0.380297E-05  0.328E-01    0.21       1.0  T
  77     -9.8880936 -0.616120E-05  0.250E-01    0.21       1.0  T
  78     -9.8881014 -0.781032E-05  0.173E-01    0.22       1.0  T
  79     -9.8881061 -0.469727E-05  0.109E-01    0.22       1.0  T
  80     -9.8881084 -0.227525E-05  0.620E-02    0.22       1.0  T
  81     -9.8881093 -0.847915E-06  0.361E-02    0.22       1.0  T
  82     -9.8881095 -0.261887E-06  0.268E-02    0.23       1.2  T
  83     -9.8881096 -0.863297E-07  0.245E-02    0.23       1.4  T
  84     -9.8881096 -0.445533E-07  0.233E-02    0.23       1.4  T
  85     -9.8881097 -0.498068E-07  0.213E-02    0.23       1.6  T
  86     -9.8881097 -0.494896E-07  0.190E-02    0.23       1.8  T
  87     -9.8881098 -0.393368E-07  0.170E-02    0.22       2.0  T
  88     -9.8881098 -0.472946E-07  0.143E-02    0.22       2.3  T
  89     -9.8881099 -0.585627E-07  0.105E-02    0.22       3.2  T
  90     -9.8881099 -0.489401E-07  0.591E-03    0.22       5.6  T
  91     -9.8881100 -0.227492E-07  0.195E-03    0.22      17.1  T
  92     -9.8881100 -0.335994E-08  0.429E-04    0.22      77.7  T
  93     -9.8881100 -0.153477E-10  0.264E-04    0.22     126.4  T
     SCC iter.                  ...        0 min,  0.019 sec
     gradient                   ...        0 min,  0.001 sec
 * total energy  :    -9.7864147 Eh     change       -0.4553010E-01 Eh
   gradient norm :     0.1268225 Eh/α   predicted    -0.7234474E-01 (  58.89%)
   displ. norm   :     0.7124861 α      lambda       -0.6071209E-01
   maximum displ.:     0.3224550 α      in ANC's #9, #12, #10, ...

........................................................................
.............................. CYCLE    6 ..............................
........................................................................
   1     -9.9300114 -0.993001E+01  0.504E+00    0.41       0.0  T
   2     -9.7163579  0.213653E+00  0.462E+00    0.43       1.0  T
   3     -9.6720293  0.443286E-01  0.600E+00    0.24       1.0  T
   4     -9.7993575 -0.127328E+00  0.347E+00    0.49       1.0  T
   5     -9.8851066 -0.857490E-01  0.340E+00    0.04       1.0  T
   6     -9.9731717 -0.880651E-01  0.239E+00    0.26       1.0  T
   7     -9.9567331  0.164386E-01  0.212E+00    0.12       1.0  T
   8     -9.9627649 -0.603186E-02  0.206E+00    0.15       1.0  T
   9     -9.9310520  0.317129E-01  0.234E+00    0.10       1.0  T
  10     -9.9514172 -0.203651E-01  0.195E+00    0.13       1.0  T
  11     -9.9730841 -0.216669E-01  0.127E+00    0.20       1.0  T
  12     -9.9744388 -0.135469E-02  0.112E+00    0.21       1.0  T
  13     -9.9786458 -0.420703E-02  0.540E-01    0.26       1.0  T
  14     -9.9791211 -0.475313E-03  0.375E-01    0.27       1.0  T
  15     -9.9793171 -0.195971E-03  0.333E-01    0.28       1.0  T
  16     -9.9798839 -0.566842E-03  0.189E-01    0.31       1.0  T
  17     -9.9798780  0.590721E-05  0.162E-01    0.30       1.0  T
  18     -9.9799069 -0.288721E-04  0.490E-02    0.31       1.0  T
  19     -9.9799034  0.348366E-05  0.872E-02    0.31       1.0  T
  20     -9.9798906  0.127790E-04  0.891E-02    0.31       1.0  T
  21     -9.9798988 -0.817084E-05  0.659E-02    0.31       1.0  T
  22     -9.9799091 -0.102627E-04  0.235E-02    0.31       1.4  T
  23     -9.9799095 -0.440718E-06  0.165E-02    0.31       2.0  T
  24     -9.9799100 -0.482534E-06  0.579E-03    0.31       5.8  T
  25     -9.9799101 -0.898085E-07  0.138E-03    0.31      24.1  T
  26     -9.9799101 -0.688417E-08  0.482E-04    0.31      69.1  T
  27     -9.9799101 -0.608624E-09  0.201E-04    0.31     165.7  T
     SCC iter.                  ...        0 min,  0.003 sec
     gradient                   ...        0 min,  0.001 sec
 * total energy  :    -9.8329926 Eh     change       -0.4657788E-01 Eh
   gradient norm :     0.1134170 Eh/α   predicted    -0.4576589E-01 (  -1.74%)
   displ. norm   :     0.7741527 α      lambda       -0.5435260E-01
   maximum displ.:     0.3270805 α      in ANC's #12, #6, #7, ...

........................................................................
.............................. CYCLE    7 ..............................
........................................................................
   1    -10.0172925 -0.100173E+02  0.392E+00    0.55       0.0  T
   2     -9.6750198  0.342273E+00  0.489E+00    0.58       1.0  T
   3     -9.6997481 -0.247283E-01  0.489E+00    0.62       1.0  T
   4     -9.9581832 -0.258435E+00  0.272E+00    0.62       1.0  T
   5     -9.9136732  0.445100E-01  0.309E+00    0.46       1.0  T
   6    -10.0394687 -0.125795E+00  0.929E-01    0.47       1.0  T
   7    -10.0429735 -0.350485E-02  0.791E-01    0.49       1.0  T
   8    -10.0422688  0.704753E-03  0.726E-01    0.49       1.0  T
   9    -10.0427375 -0.468742E-03  0.400E-01    0.50       1.0  T
  10    -10.0412450  0.149250E-02  0.546E-01    0.49       1.0  T
  11    -10.0415174 -0.272400E-03  0.499E-01    0.49       1.0  T
  12    -10.0435154 -0.199797E-02  0.949E-02    0.49       1.0  T
  13    -10.0435104  0.498668E-05  0.901E-02    0.49       1.0  T
  14    -10.0429714  0.538974E-03  0.285E-01    0.49       1.0  T
  15    -10.0435162 -0.544815E-03  0.213E-02    0.49       1.6  T
  16    -10.0435185 -0.225200E-05  0.108E-02    0.49       3.1  T
  17    -10.0435198 -0.130580E-05  0.310E-03    0.49      10.8  T
  18    -10.0435198  0.825437E-08  0.164E-03    0.49      20.3  T
  19    -10.0435198 -0.119809E-07  0.484E-04    0.49      68.8  T
  20    -10.0435198 -0.171949E-08  0.102E-04    0.49     325.8  T
     SCC iter.                  ...        0 min,  0.003 sec
     gradient                   ...        0 min,  0.001 sec
 * total energy  :    -9.8730786 Eh     change       -0.4008599E-01 Eh
   gradient norm :     0.1046388 Eh/α   predicted    -0.4346339E-01 (   8.43%)
   displ. norm   :     0.7829767 α      lambda       -0.6175494E-01
   maximum displ.:     0.4116077 α      in ANC's #21, #17, #20, ...

........................................................................
.............................. CYCLE    8 ..............................
........................................................................
   1    -10.0810425 -0.100810E+02  0.370E+00    0.71       0.0  T
   2    -10.0074839  0.735586E-01  0.316E+00    0.80       1.0  T
   3     -9.8142488  0.193235E+00  0.397E+00    0.88       1.0  T
   4     -9.4814249  0.332824E+00  0.662E+00    0.86       1.0  T
   5     -9.8746684 -0.393244E+00  0.432E+00    0.83       1.0  T
   6     -9.9397451 -0.650767E-01  0.321E+00    0.81       1.0  T
   7    -10.0927614 -0.153016E+00  0.931E-01    0.73       1.0  T
   8    -10.0922085  0.552871E-03  0.926E-01    0.73       1.0  T
   9    -10.0938423 -0.163381E-02  0.919E-01    0.73       1.0  T
  10    -10.1006381 -0.679574E-02  0.264E-01    0.75       1.0  T
  11    -10.1010345 -0.396424E-03  0.224E-01    0.75       1.0  T
  12    -10.1012491 -0.214651E-03  0.156E-01    0.75       1.0  T
  13    -10.1013682 -0.119036E-03  0.121E-01    0.76       1.0  T
  14    -10.1013654  0.280965E-05  0.570E-02    0.75       1.0  T
  15    -10.1013668 -0.148965E-05  0.257E-02    0.75       1.3  T
  16    -10.1013727 -0.580733E-05  0.111E-02    0.75       3.0  T
  17    -10.1013725  0.142728E-06  0.112E-02    0.75       3.0  T
  18    -10.1013731 -0.550393E-06  0.544E-03    0.75       6.1  T
  19    -10.1013733 -0.250318E-06  0.184E-03    0.75      18.2  T
  20    -10.1013733 -0.225618E-07  0.535E-04    0.75      62.4  T
  21    -10.1013733 -0.184190E-08  0.897E-05    0.75     371.6  T
     SCC iter.                  ...        0 min,  0.003 sec
     gradient                   ...        0 min,  0.000 sec
 * total energy  :    -9.8943000 Eh     change       -0.2122137E-01 Eh
   gradient norm :     0.2221143 Eh/α   predicted    -0.4980694E-01 ( 134.70%)
   displ. norm   :     0.5867707 α      lambda       -0.6142004E-01
   maximum displ.:     0.2744557 α      in ANC's #21, #2, #8, ...

........................................................................
.............................. CYCLE    9 ..............................
........................................................................
   1    -10.0956866 -0.100957E+02  0.197E+00    0.79       0.0  T
   2     -9.6292921  0.466395E+00  0.495E+00    0.89       1.0  T
   3    -10.0291772 -0.399885E+00  0.254E+00    0.88       1.0  T
   4    -10.0706200 -0.414428E-01  0.160E+00    0.81       1.0  T
   5    -10.0876107 -0.169907E-01  0.105E+00    0.82       1.0  T
   6    -10.0991192 -0.115086E-01  0.663E-01    0.76       1.0  T
   7    -10.1026766 -0.355731E-02  0.510E-01    0.77       1.0  T
   8    -10.1037200 -0.104347E-02  0.452E-01    0.77       1.0  T
   9    -10.1062983 -0.257831E-02  0.120E-01    0.77       1.0  T
  10    -10.1062794  0.189763E-04  0.105E-01    0.77       1.0  T
  11    -10.1063002 -0.208068E-04  0.287E-02    0.77       1.2  T
  12    -10.1063011 -0.883604E-06  0.369E-02    0.77       1.0  T
  13    -10.1063027 -0.164902E-05  0.117E-02    0.77       2.8  T
  14    -10.1063038 -0.112286E-05  0.401E-03    0.77       8.3  T
  15    -10.1063039 -0.716455E-07  0.205E-03    0.77      16.2  T
  16    -10.1063039 -0.483271E-07  0.817E-04    0.77      40.8  T
  17    -10.1063039 -0.236646E-08  0.335E-04    0.77      99.4  T
     SCC iter.                  ...        0 min,  0.003 sec
     gradient                   ...        0 min,  0.000 sec
 * total energy  :    -9.9324251 Eh     change       -0.3812513E-01 Eh
   gradient norm :     0.0868109 Eh/α   predicted    -0.4128345E-01 (   8.28%)
   displ. norm   :     0.6846786 α      lambda       -0.4712767E-01
   maximum displ.:     0.3325309 α      in ANC's #21, #1, #9, ...

........................................................................
.............................. CYCLE   10 ..............................
........................................................................
   1    -10.1594439 -0.101594E+02  0.250E+00    0.88       0.0  T
   2     -9.6983237  0.461120E+00  0.462E+00    0.72       1.0  T
   3     -9.9331152 -0.234791E+00  0.404E+00    1.41       1.0  T
   4    -10.0384614 -0.105346E+00  0.305E+00    1.35       1.0  T
   5    -10.0781220 -0.396606E-01  0.247E+00    1.06       1.0  T
   6    -10.1157005 -0.375785E-01  0.182E+00    1.03       1.0  T
   7    -10.1484537 -0.327532E-01  0.127E+00    0.90       1.0  T
   8    -10.1607075 -0.122538E-01  0.915E-01    0.85       1.0  T
   9    -10.1652685 -0.456095E-02  0.723E-01    0.84       1.0  T
  10    -10.1725815 -0.731304E-02  0.134E-01    0.79       1.0  T
  11    -10.1724001  0.181418E-03  0.128E-01    0.80       1.0  T
  12    -10.1724632 -0.630763E-04  0.102E-01    0.79       1.0  T
  13    -10.1726193 -0.156148E-03  0.143E-02    0.79       2.3  T
  14    -10.1726186  0.693901E-06  0.108E-02    0.79       3.1  T
  15    -10.1726198 -0.120184E-05  0.423E-03    0.79       7.9  T
  16    -10.1726198 -0.165964E-07  0.690E-04    0.79      48.3  T
  17    -10.1726198  0.116899E-08  0.604E-04    0.79      55.2  T
     SCC iter.                  ...        0 min,  0.003 sec
     gradient                   ...        0 min,  0.000 sec
 * total energy  :    -9.9578701 Eh     change       -0.2544496E-01 Eh
   gradient norm :     0.1899576 Eh/α   predicted    -0.3461020E-01 (  36.02%)
   displ. norm   :     0.7314161 α      lambda       -0.6532690E-01
   maximum displ.:     0.3191490 α      in ANC's #21, #13, #4, ...

........................................................................
.............................. CYCLE   11 ..............................
........................................................................
   1    -10.0934480 -0.100934E+02  0.251E+00    0.85       0.0  T
   2     -9.1016826  0.991765E+00  0.709E+00    0.86       1.0  T
   3    -10.0132003 -0.911518E+00  0.245E+00    1.10       1.0  T
   4    -10.0524723 -0.392720E-01  0.225E+00    0.71       1.0  T
   5    -10.0893498 -0.368775E-01  0.154E+00    0.74       1.0  T
   6    -10.0790531  0.102968E-01  0.153E+00    0.74       1.0  T
   7    -10.1195619 -0.405088E-01  0.428E-01    0.83       1.0  T
   8    -10.1224038 -0.284194E-02  0.332E-01    0.87       1.0  T
   9    -10.1192973  0.310652E-02  0.485E-01    0.91       1.0  T
  10    -10.1218645 -0.256724E-02  0.245E-01    0.89       1.0  T
  11    -10.1225460 -0.681476E-03  0.213E-01    0.89       1.0  T
  12    -10.1230036 -0.457561E-03  0.785E-02    0.88       1.0  T
  13    -10.1230823 -0.787543E-04  0.351E-02    0.87       1.0  T
  14    -10.1230926 -0.102603E-04  0.143E-02    0.87       2.3  T
  15    -10.1230947 -0.215964E-05  0.516E-03    0.87       6.5  T
  16    -10.1230950 -0.240250E-06  0.147E-03    0.87      22.6  T
  17    -10.1230950 -0.257842E-07  0.291E-04    0.87     114.6  T
  18    -10.1230950 -0.564613E-09  0.670E-05    0.87     497.4  T
     SCC iter.                  ...        0 min,  0.003 sec
     gradient                   ...        0 min,  0.000 sec
 * total energy  :    -9.9510004 Eh     change        0.6869621E-02 Eh
   gradient norm :     0.2497981 Eh/α   predicted    -0.5013740E-01 (-829.84%)
   displ. norm   :     0.4947095 α      lambda       -0.1008575E+00
   maximum displ.:     0.2990227 α      in ANC's #13, #21, #11, ...

........................................................................
.............................. CYCLE   12 ..............................
........................................................................
   1    -10.0860218 -0.100860E+02  0.193E+00    0.82       0.0  T
   2     -9.8207994  0.265222E+00  0.379E+00    0.80       1.0  T
   3    -10.0344063 -0.213607E+00  0.227E+00    0.81       1.0  T
   4    -10.1026168 -0.682105E-01  0.789E-01    0.83       1.0  T
   5    -10.1082513 -0.563449E-02  0.424E-01    0.78       1.0  T
   6    -10.1094900 -0.123871E-02  0.257E-01    0.81       1.0  T
   7    -10.1084902  0.999764E-03  0.349E-01    0.80       1.0  T
   8    -10.1095124 -0.102219E-02  0.935E-02    0.81       1.0  T
   9    -10.1093863  0.126128E-03  0.128E-01    0.81       1.0  T
  10    -10.1093789  0.733678E-05  0.128E-01    0.81       1.0  T
  11    -10.1095295 -0.150553E-03  0.187E-02    0.81       1.8  T
  12    -10.1095229  0.657875E-05  0.250E-02    0.81       1.3  T
  13    -10.1095304 -0.752490E-05  0.500E-03    0.81       6.7  T
  14    -10.1095307 -0.225498E-06  0.585E-04    0.81      57.0  T
  15    -10.1095307 -0.230094E-08  0.268E-04    0.81     124.3  T
     SCC iter.                  ...        0 min,  0.002 sec
     gradient                   ...        0 min,  0.001 sec
 * total energy  :    -9.9671383 Eh     change       -0.1613788E-01 Eh
   gradient norm :     0.1522395 Eh/α   predicted    -0.6277058E-01 ( 288.96%)
   displ. norm   :     0.5944889 α      lambda       -0.6519901E-01
   maximum displ.:     0.2533596 α      in ANC's #18, #7, #11, ...

........................................................................
.............................. CYCLE   13 ..............................
........................................................................
   1    -10.1710665 -0.101711E+02  0.287E+00    0.93       0.0  T
   2     -9.8577186  0.313348E+00  0.462E+00    1.02       1.0  T
   3     -9.9845216 -0.126803E+00  0.349E+00    0.69       1.0  T
   4    -10.0507724 -0.662507E-01  0.325E+00    1.31       1.0  T
   5    -10.2002003 -0.149428E+00  0.104E+00    0.99       1.0  T
   6    -10.1957151  0.448516E-02  0.101E+00    1.03       1.0  T
   7    -10.1980444 -0.232924E-02  0.911E-01    1.02       1.0  T
   8    -10.2050575 -0.701316E-02  0.456E-01    0.99       1.0  T
   9    -10.2058241 -0.766516E-03  0.325E-01    0.99       1.0  T
  10    -10.2066658 -0.841742E-03  0.164E-01    0.98       1.0  T
  11    -10.2069629 -0.297089E-03  0.412E-02    0.97       1.0  T
  12    -10.2069838 -0.209618E-04  0.168E-02    0.97       2.0  T
  13    -10.2069871 -0.321629E-05  0.525E-03    0.97       6.3  T
  14    -10.2069874 -0.380283E-06  0.154E-03    0.97      21.7  T
  15    -10.2069874  0.613019E-08  0.149E-03    0.97      22.4  T
  16    -10.2069875 -0.309198E-07  0.194E-04    0.97     172.1  T
  17    -10.2069875 -0.211314E-09  0.121E-04    0.97     275.4  T
     SCC iter.                  ...        0 min,  0.002 sec
     gradient                   ...        0 min,  0.001 sec
 * total energy  :    -9.9685805 Eh     change       -0.1442147E-02 Eh
   gradient norm :     0.1628968 Eh/α   predicted    -0.4412073E-01 (2959.38%)
   displ. norm   :     0.4566077 α      lambda       -0.5215760E-01
   maximum displ.:     0.1836418 α      in ANC's #1, #12, #3, ...

........................................................................
.............................. CYCLE   14 ..............................
........................................................................
   1    -10.1919570 -0.101920E+02  0.199E+00    1.06       0.0  T
   2     -8.0722369  0.211972E+01  0.102E+01    0.24       1.0  T
   3    -10.1358953 -0.206366E+01  0.213E+00    1.47       1.0  T
   4    -10.2005984 -0.647031E-01  0.137E+00    1.05       1.0  T
   5    -10.1733082  0.272902E-01  0.153E+00    1.21       1.0  T
   6    -10.1952056 -0.218974E-01  0.116E+00    1.11       1.0  T
   7    -10.2076843 -0.124787E-01  0.959E-01    1.02       1.0  T
   8    -10.2075882  0.960877E-04  0.914E-01    1.02       1.0  T
   9    -10.2124215 -0.483328E-02  0.706E-01    0.98       1.0  T
  10    -10.2124853 -0.638025E-04  0.701E-01    0.98       1.0  T
  11    -10.2137996 -0.131430E-02  0.583E-01    0.97       1.0  T
  12    -10.2146965 -0.896928E-03  0.498E-01    0.97       1.0  T
  13    -10.2170416 -0.234511E-02  0.147E-01    0.94       1.0  T
  14    -10.2170769 -0.352520E-04  0.130E-01    0.94       1.0  T
  15    -10.2172444 -0.167519E-03  0.469E-02    0.93       1.0  T
  16    -10.2172592 -0.148103E-04  0.367E-02    0.93       1.0  T
  17    -10.2172659 -0.670300E-05  0.228E-02    0.93       1.5  T
  18    -10.2172689 -0.292803E-05  0.138E-02    0.93       2.4  T
  19    -10.2172705 -0.167913E-05  0.126E-03    0.93      26.5  T
  20    -10.2172705 -0.100530E-07  0.454E-04    0.93      73.4  T
  21    -10.2172705 -0.205310E-08  0.482E-05    0.93     691.4  T
     SCC iter.                  ...        0 min,  0.003 sec
     gradient                   ...        0 min,  0.001 sec
 * total energy  :    -9.9921112 Eh     change       -0.2353071E-01 Eh
   gradient norm :     0.1144525 Eh/α   predicted    -0.3151600E-01 (  33.94%)
   displ. norm   :     0.5567788 α      lambda       -0.4137987E-01
   maximum displ.:     0.4113043 α      in ANC's #7, #2, #19, ...

........................................................................
.............................. CYCLE   15 ..............................
........................................................................
   1    -10.1432915 -0.101433E+02  0.273E+00    1.05       0.0  T
   2    -10.0053693  0.137922E+00  0.345E+00    0.78       1.0  T
   3    -10.0179390 -0.125697E-01  0.250E+00    1.37       1.0  T
   4     -9.8955174  0.122422E+00  0.368E+00    0.50       1.0  T
   5    -10.1623190 -0.266802E+00  0.810E-01    0.97       1.0  T
   6    -10.1590490  0.327004E-02  0.823E-01    0.96       1.0  T
   7    -10.1639143 -0.486527E-02  0.463E-01    0.97       1.0  T
   8    -10.1637576  0.156666E-03  0.303E-01    1.00       1.0  T
   9    -10.1637928 -0.352024E-04  0.218E-01    1.00       1.0  T
  10    -10.1639382 -0.145426E-03  0.170E-01    0.99       1.0  T
  11    -10.1641365 -0.198302E-03  0.106E-01    0.99       1.0  T
  12    -10.1642651 -0.128511E-03  0.354E-02    0.98       1.0  T
  13    -10.1642825 -0.174616E-04  0.127E-02    0.98       2.6  T
  14    -10.1642850 -0.245906E-05  0.487E-03    0.98       6.8  T
  15    -10.1642852 -0.244767E-06  0.230E-03    0.98      14.5  T
  16    -10.1642853 -0.431153E-07  0.104E-03    0.98      31.9  T
  17    -10.1642853 -0.151743E-07  0.168E-04    0.98     198.5  T
  18    -10.1642853 -0.384857E-09  0.411E-05    0.98     810.7  T
     SCC iter.                  ...        0 min,  0.002 sec
     gradient                   ...        0 min,  0.000 sec
 * total energy  :    -9.9907498 Eh     change        0.1361396E-02 Eh
   gradient norm :     0.1558103 Eh/α   predicted    -0.2710388E-01 (*******%)
   displ. norm   :     0.4533969 α      lambda       -0.3842888E-01
   maximum displ.:     0.2133231 α      in ANC's #4, #18, #10, ...

........................................................................
.............................. CYCLE   16 ..............................
........................................................................
   1    -10.2000393 -0.102000E+02  0.207E+00    0.94       0.0  T
   2    -10.1801482  0.198911E-01  0.166E+00    1.31       1.0  T
   3     -9.9806749  0.199473E+00  0.294E+00    0.54       1.0  T
   4    -10.0885577 -0.107883E+00  0.230E+00    1.37       1.0  T
   5    -10.2038232 -0.115266E+00  0.437E-01    1.07       1.0  T
   6    -10.2021833  0.163985E-02  0.417E-01    1.12       1.0  T
   7    -10.2031684 -0.985085E-03  0.366E-01    1.10       1.0  T
   8    -10.2046734 -0.150493E-02  0.200E-01    1.08       1.0  T
   9    -10.2052002 -0.526803E-03  0.129E-01    1.07       1.0  T
  10    -10.2052949 -0.947035E-04  0.955E-02    1.06       1.0  T
  11    -10.2054792 -0.184383E-03  0.145E-02    1.05       2.3  T
  12    -10.2054825 -0.324481E-05  0.405E-03    1.05       8.2  T
  13    -10.2054826 -0.109852E-06  0.772E-04    1.05      43.2  T
  14    -10.2054826  0.170764E-07  0.896E-04    1.05      37.2  T
     SCC iter.                  ...        0 min,  0.002 sec
     gradient                   ...        0 min,  0.000 sec
 * total energy  :   -10.0222308 Eh     change       -0.3148107E-01 Eh
   gradient norm :     0.1125115 Eh/α   predicted    -0.2316433E-01 ( -26.42%)
   displ. norm   :     0.7638788 α      lambda       -0.6650556E-01
   maximum displ.:     0.4208513 α      in ANC's #4, #18, #1, ...

........................................................................
.............................. CYCLE   17 ..............................
........................................................................
   1    -10.3550812 -0.103551E+02  0.333E+00    0.58       0.0  T
   2    -10.2738196  0.812616E-01  0.239E+00    1.39       1.0  T
   3     -8.3336107  0.194021E+01  0.851E+00    0.63       1.0  T
   4    -10.3570898 -0.202348E+01  0.165E+00    0.69       1.0  T
   5    -10.3569716  0.118211E-03  0.120E+00    0.74       1.0  T
   6    -10.3501858  0.678576E-02  0.828E-01    0.91       1.0  T
   7    -10.3565650 -0.637917E-02  0.706E-01    0.88       1.0  T
   8    -10.3594428 -0.287780E-02  0.617E-01    0.86       1.0  T
   9    -10.3651992 -0.575640E-02  0.495E-01    0.80       1.0  T
  10    -10.3652431 -0.439256E-04  0.490E-01    0.80       1.0  T
  11    -10.3655521 -0.308984E-03  0.443E-01    0.80       1.0  T
  12    -10.3666425 -0.109042E-02  0.223E-01    0.80       1.0  T
  13    -10.3670024 -0.359867E-03  0.529E-02    0.80       1.0  T
  14    -10.3670283 -0.258904E-04  0.436E-02    0.80       1.0  T
  15    -10.3670350 -0.671508E-05  0.195E-02    0.80       1.7  T
  16    -10.3670367 -0.167672E-05  0.186E-03    0.80      17.9  T
  17    -10.3670367  0.263982E-07  0.169E-03    0.80      19.7  T
  18    -10.3670367 -0.277182E-07  0.939E-04    0.80      35.5  T
  19    -10.3670367 -0.559583E-08  0.678E-05    0.80     491.7  T
     SCC iter.                  ...        0 min,  0.003 sec
     gradient                   ...        0 min,  0.000 sec
 * total energy  :   -10.0240843 Eh     change       -0.1853438E-02 Eh
   gradient norm :     0.3060661 Eh/α   predicted    -0.5265613E-01 (2741.00%)
   displ. norm   :     0.3695898 α      lambda       -0.7585984E-01
   maximum displ.:     0.2006827 α      in ANC's #6, #15, #16, ...

........................................................................
.............................. CYCLE   18 ..............................
........................................................................
   1    -10.2965150 -0.102965E+02  0.981E-01    0.76       0.0  T
   2    -10.2856079  0.109071E-01  0.123E+00    0.79       1.0  T
   3    -10.2995217 -0.139138E-01  0.500E-01    0.78       1.0  T
   4    -10.2902379  0.928379E-02  0.667E-01    0.70       1.0  T
   5    -10.2899765  0.261427E-03  0.678E-01    0.89       1.0  T
   6    -10.2994416 -0.946509E-02  0.229E-01    0.81       1.0  T
   7    -10.3000547 -0.613076E-03  0.116E-01    0.79       1.0  T
   8    -10.3002773 -0.222598E-03  0.436E-02    0.78       1.0  T
   9    -10.3002894 -0.121625E-04  0.181E-02    0.78       1.8  T
  10    -10.3002951 -0.568892E-05  0.231E-03    0.78      14.4  T
  11    -10.3002951 -0.330159E-07  0.137E-03    0.78      24.4  T
  12    -10.3002952 -0.283674E-07  0.516E-04    0.78      64.6  T
  13    -10.3002952 -0.401640E-08  0.465E-05    0.78     717.1  T
     SCC iter.                  ...        0 min,  0.002 sec
     gradient                   ...        0 min,  0.000 sec
 * total energy  :   -10.0615824 Eh     change       -0.3749811E-01 Eh
   gradient norm :     0.0555907 Eh/α   predicted    -0.4311101E-01 (  14.97%)
   displ. norm   :     0.5354557 α      lambda       -0.1520541E-01
   maximum displ.:     0.2607230 α      in ANC's #5, #1, #10, ...

........................................................................
.............................. CYCLE   19 ..............................
........................................................................
   1    -10.3044971 -0.103045E+02  0.201E+00    0.62       0.0  T
   2    -10.3037131  0.783953E-03  0.137E+00    0.62       1.0  T
   3    -10.2472337  0.564794E-01  0.182E+00    0.83       1.0  T
   4    -10.2665294 -0.192956E-01  0.127E+00    0.48       1.0  T
   5    -10.2992615 -0.327321E-01  0.533E-01    0.74       1.0  T
   6    -10.3043499 -0.508849E-02  0.224E-01    0.68       1.0  T
   7    -10.3048809 -0.530975E-03  0.119E-01    0.67       1.0  T
   8    -10.3049946 -0.113717E-03  0.562E-02    0.67       1.0  T
   9    -10.3050090 -0.143614E-04  0.398E-02    0.67       1.0  T
  10    -10.3050387 -0.297303E-04  0.162E-02    0.66       2.1  T
  11    -10.3050409 -0.219371E-05  0.983E-03    0.66       3.4  T
  12    -10.3050420 -0.107408E-05  0.409E-03    0.66       8.1  T
  13    -10.3050422 -0.234452E-06  0.141E-03    0.66      23.6  T
  14    -10.3050423 -0.288188E-07  0.295E-04    0.66     113.0  T
  15    -10.3050423 -0.102888E-08  0.304E-05    0.66    1096.1  T
     SCC iter.                  ...        0 min,  0.002 sec
     gradient                   ...        0 min,  0.001 sec
 * total energy  :   -10.0707247 Eh     change       -0.9142287E-02 Eh
   gradient norm :     0.0502931 Eh/α   predicted    -0.9782495E-02 (   7.00%)
   displ. norm   :     0.7022082 α      lambda       -0.1590521E-01
   maximum displ.:     0.3382175 α      in ANC's #5, #1, #4, ...

........................................................................
.............................. CYCLE   20 ..............................
........................................................................
   1    -10.2878556 -0.102879E+02  0.185E+00    0.47       0.0  T
   2    -10.2697411  0.181145E-01  0.186E+00    0.58       1.0  T
   3    -10.2780607 -0.831955E-02  0.128E+00    0.53       1.0  T
   4    -10.1168095  0.161251E+00  0.241E+00    0.28       1.0  T
   5    -10.2782518 -0.161442E+00  0.767E-01    0.62       1.0  T
   6    -10.2879845 -0.973264E-02  0.430E-01    0.58       1.0  T
   7    -10.2903367 -0.235223E-02  0.290E-01    0.55       1.0  T
   8    -10.2905391 -0.202419E-03  0.268E-01    0.55       1.0  T
   9    -10.2912877 -0.748599E-03  0.178E-01    0.55       1.0  T
  10    -10.2919642 -0.676538E-03  0.666E-02    0.53       1.0  T
  11    -10.2919688 -0.458985E-05  0.625E-02    0.53       1.0  T
  12    -10.2920248 -0.559285E-04  0.131E-02    0.53       2.5  T
  13    -10.2920254 -0.652061E-06  0.143E-02    0.53       2.3  T
  14    -10.2920273 -0.186493E-05  0.465E-03    0.53       7.2  T
  15    -10.2920274 -0.832453E-07  0.706E-04    0.53      47.2  T
  16    -10.2920274 -0.257468E-08  0.720E-04    0.53      46.3  T
     SCC iter.                  ...        0 min,  0.002 sec
     gradient                   ...        0 min,  0.000 sec
 * total energy  :   -10.0732973 Eh     change       -0.2572574E-02 Eh
   gradient norm :     0.1128576 Eh/α   predicted    -0.1187400E-01 ( 361.56%)
   displ. norm   :     0.4717140 α      lambda       -0.1956795E-01
   maximum displ.:     0.3712606 α      in ANC's #1, #3, #15, ...
 * RMSD in coord.:     1.9656337 α      energy gain  -0.7146803E+00 Eh

generating ANC from model Hessian ...
Using Lindh-Hessian (1995)
 Shifting diagonal of input Hessian by    1.1923957904663114E-002
 Lowest  eigenvalues of input Hessian
    0.010000    0.011685    0.011873    0.000000    0.000000    0.000000
    0.000000    0.000000    0.000000    0.012002    0.012245    0.012461
    0.013073    0.013354    0.013967    0.045558    0.073241    0.122623
 Highest eigenvalues
    0.458700    0.520809    0.768337    1.237210    1.442384    2.107785


........................................................................
.............................. CYCLE   21 ..............................
........................................................................
   1    -10.2644463 -0.102644E+02  0.133E+00    0.61       0.0  T
   2    -10.2489112  0.155351E-01  0.123E+00    0.49       1.0  T
   3    -10.2289162  0.199950E-01  0.135E+00    0.86       1.0  T
   4    -10.2313665 -0.245026E-02  0.123E+00    0.41       1.0  T
   5    -10.2606586 -0.292922E-01  0.666E-01    0.68       1.0  T
   6    -10.2681254 -0.746671E-02  0.243E-01    0.64       1.0  T
   7    -10.2690157 -0.890313E-03  0.151E-01    0.62       1.0  T
   8    -10.2692867 -0.271066E-03  0.109E-01    0.61       1.0  T
   9    -10.2694171 -0.130362E-03  0.276E-02    0.60       1.2  T
  10    -10.2694185 -0.135766E-05  0.243E-02    0.60       1.4  T
  11    -10.2694293 -0.108287E-04  0.614E-03    0.60       5.4  T
  12    -10.2694299 -0.589917E-06  0.145E-03    0.60      23.0  T
  13    -10.2694299 -0.195730E-07  0.619E-04    0.60      53.9  T
  14    -10.2694299 -0.314660E-08  0.178E-04    0.60     186.9  T
     SCC iter.                  ...        0 min,  0.002 sec
     gradient                   ...        0 min,  0.001 sec
 * total energy  :   -10.0675127 Eh     change        0.5784505E-02 Eh
   gradient norm :     0.1396340 Eh/α   predicted     0.0000000E+00 (-100.00%)
   displ. norm   :     0.3084231 α      lambda       -0.2589540E-01
   maximum displ.:     0.1263428 α      in ANC's #14, #7, #18, ...

........................................................................
.............................. CYCLE   22 ..............................
........................................................................
   1    -10.3199816 -0.103200E+02  0.111E+00    0.54       0.0  T
   2    -10.3008234  0.191582E-01  0.101E+00    0.77       1.0  T
   3    -10.2086137  0.922097E-01  0.197E+00    0.32       1.0  T
   4    -10.3197422 -0.111128E+00  0.547E-01    0.59       1.0  T
   5    -10.3199717 -0.229528E-03  0.283E-01    0.63       1.0  T
   6    -10.3216657 -0.169398E-02  0.148E-01    0.60       1.0  T
   7    -10.3218250 -0.159313E-03  0.117E-01    0.59       1.0  T
   8    -10.3217612  0.637783E-04  0.663E-02    0.59       1.0  T
   9    -10.3218470 -0.857989E-04  0.360E-02    0.59       1.0  T
  10    -10.3218516 -0.461807E-05  0.191E-02    0.60       1.7  T
  11    -10.3218565 -0.489440E-05  0.351E-03    0.60       9.5  T
  12    -10.3218566 -0.472437E-07  0.198E-03    0.60      16.8  T
  13    -10.3218566  0.126674E-08  0.104E-03    0.60      31.9  T
  14    -10.3218566 -0.931175E-09  0.262E-04    0.60     127.1  T
  15    -10.3218566 -0.128342E-08  0.421E-05    0.60     791.8  T
     SCC iter.                  ...        0 min,  0.002 sec
     gradient                   ...        0 min,  0.000 sec
 * total energy  :   -10.0857777 Eh     change       -0.1826493E-01 Eh
   gradient norm :     0.0658464 Eh/α   predicted    -0.1417935E-01 ( -22.37%)
   displ. norm   :     0.4958546 α      lambda       -0.1598458E-01
   maximum displ.:     0.3116358 α      in ANC's #1, #6, #14, ...

........................................................................
.............................. CYCLE   23 ..............................
........................................................................
   1    -10.3556284 -0.103556E+02  0.157E+00    0.52       0.0  T
   2    -10.3326756  0.229528E-01  0.117E+00    0.75       1.0  T
   3    -10.1288644  0.203811E+00  0.338E+00    0.32       1.0  T
   4    -10.3214434 -0.192579E+00  0.170E+00    0.42       1.0  T
   5    -10.3347524 -0.133091E-01  0.109E+00    0.50       1.0  T
   6    -10.3529684 -0.182159E-01  0.543E-01    0.53       1.0  T
   7    -10.3585239 -0.555552E-02  0.157E-01    0.59       1.0  T
   8    -10.3588609 -0.336938E-03  0.784E-02    0.59       1.0  T
   9    -10.3588851 -0.242206E-04  0.588E-02    0.59       1.0  T
  10    -10.3588762  0.890948E-05  0.414E-02    0.59       1.0  T
  11    -10.3588889 -0.127785E-04  0.281E-02    0.59       1.2  T
  12    -10.3588897 -0.709276E-06  0.207E-02    0.59       1.6  T
  13    -10.3588910 -0.137713E-05  0.140E-02    0.59       2.4  T
  14    -10.3588921 -0.103428E-05  0.439E-03    0.59       7.6  T
  15    -10.3588922 -0.101907E-06  0.191E-03    0.59      17.4  T
  16    -10.3588922 -0.134157E-07  0.117E-03    0.59      28.5  T
  17    -10.3588922 -0.667529E-08  0.169E-04    0.59     197.5  T
  18    -10.3588922 -0.119471E-09  0.805E-05    0.59     414.0  T
     SCC iter.                  ...        0 min,  0.003 sec
     gradient                   ...        0 min,  0.000 sec
 * total energy  :   -10.0850830 Eh     change        0.6946444E-03 Eh
   gradient norm :     0.1154564 Eh/α   predicted    -0.9957358E-02 (*******%)
   displ. norm   :     0.4072446 α      lambda       -0.1602377E-01
   maximum displ.:     0.2173055 α      in ANC's #1, #7, #8, ...

........................................................................
.............................. CYCLE   24 ..............................
........................................................................
   1    -10.3498287 -0.103498E+02  0.980E-01    0.66       0.0  T
   2    -10.3487835  0.104513E-02  0.653E-01    0.64       1.0  T
   3    -10.3264650  0.223185E-01  0.129E+00    0.63       1.0  T
   4    -10.3355754 -0.911044E-02  0.799E-01    0.75       1.0  T
   5    -10.3497154 -0.141400E-01  0.198E-01    0.63       1.0  T
   6    -10.3499379 -0.222504E-03  0.128E-01    0.64       1.0  T
   7    -10.3499839 -0.459282E-04  0.103E-01    0.64       1.0  T
   8    -10.3501437 -0.159818E-03  0.120E-02    0.65       2.8  T
   9    -10.3501452 -0.151253E-05  0.626E-03    0.65       5.3  T
  10    -10.3501458 -0.576834E-06  0.187E-03    0.65      17.9  T
  11    -10.3501458  0.340058E-08  0.112E-03    0.65      29.9  T
  12    -10.3501458 -0.899474E-09  0.836E-04    0.65      39.9  T
  13    -10.3501458 -0.704772E-08  0.199E-04    0.65     167.8  T
     SCC iter.                  ...        0 min,  0.003 sec
     gradient                   ...        0 min,  0.000 sec
 * total energy  :   -10.0938949 Eh     change       -0.8811833E-02 Eh
   gradient norm :     0.0565691 Eh/α   predicted    -0.9340647E-02 (   6.00%)
   displ. norm   :     0.2718070 α      lambda       -0.4945339E-02
   maximum displ.:     0.1589514 α      in ANC's #6, #7, #1, ...

........................................................................
.............................. CYCLE   25 ..............................
........................................................................
   1    -10.3360576 -0.103361E+02  0.682E-01    0.70       0.0  T
   2    -10.3307655  0.529201E-02  0.654E-01    0.61       1.0  T
   3    -10.3189331  0.118325E-01  0.985E-01    0.79       1.0  T
   4    -10.3351192 -0.161862E-01  0.343E-01    0.69       1.0  T
   5    -10.3362179 -0.109861E-02  0.136E-01    0.68       1.0  T
   6    -10.3363972 -0.179348E-03  0.724E-02    0.68       1.0  T
   7    -10.3364010 -0.381520E-05  0.653E-02    0.68       1.0  T
   8    -10.3364045 -0.344741E-05  0.390E-02    0.68       1.0  T
   9    -10.3364187 -0.142016E-04  0.273E-02    0.68       1.2  T
  10    -10.3364266 -0.792502E-05  0.102E-02    0.68       3.3  T
  11    -10.3364282 -0.156447E-05  0.191E-03    0.68      17.5  T
  12    -10.3364282 -0.370857E-07  0.497E-04    0.68      67.0  T
  13    -10.3364282 -0.118455E-08  0.985E-05    0.68     338.5  T
     SCC iter.                  ...        0 min,  0.003 sec
     gradient                   ...        0 min,  0.000 sec
 * total energy  :   -10.0962605 Eh     change       -0.2365608E-02 Eh
   gradient norm :     0.0305503 Eh/α   predicted    -0.2655346E-02 (  12.25%)
   displ. norm   :     0.4024093 α      lambda       -0.4203537E-02
   maximum displ.:     0.2116852 α      in ANC's #7, #6, #11, ...

........................................................................
.............................. CYCLE   26 ..............................
........................................................................
   1    -10.3341501 -0.103342E+02  0.140E+00    0.71       0.0  T
   2    -10.3314557  0.269438E-02  0.915E-01    0.78       1.0  T
   3    -10.1945604  0.136895E+00  0.288E+00    0.51       1.0  T
   4    -10.3276341 -0.133074E+00  0.799E-01    0.68       1.0  T
   5    -10.3322239 -0.458986E-02  0.381E-01    0.71       1.0  T
   6    -10.3344204 -0.219642E-02  0.115E-01    0.72       1.0  T
   7    -10.3344957 -0.753677E-04  0.719E-02    0.72       1.0  T
   8    -10.3345224 -0.266557E-04  0.236E-02    0.73       1.4  T
   9    -10.3345245 -0.212895E-05  0.163E-02    0.73       2.0  T
  10    -10.3345279 -0.336115E-05  0.715E-03    0.73       4.7  T
  11    -10.3345284 -0.536225E-06  0.191E-03    0.73      17.4  T
  12    -10.3345284  0.362518E-08  0.977E-04    0.73      34.1  T
  13    -10.3345284 -0.440729E-08  0.646E-04    0.73      51.6  T
     SCC iter.                  ...        0 min,  0.002 sec
     gradient                   ...        0 min,  0.000 sec
 * total energy  :   -10.0990613 Eh     change       -0.2800834E-02 Eh
   gradient norm :     0.0288527 Eh/α   predicted    -0.2442113E-02 ( -12.81%)
   displ. norm   :     0.4735605 α      lambda       -0.5448608E-02
   maximum displ.:     0.2102999 α      in ANC's #11, #4, #15, ...

........................................................................
.............................. CYCLE   27 ..............................
........................................................................
   1    -10.3468252 -0.103468E+02  0.218E+00    0.71       0.0  T
   2    -10.3466682  0.157049E-03  0.151E+00    0.74       1.0  T
   3    -10.2878157  0.588525E-01  0.169E+00    0.49       1.0  T
   4    -10.3401961 -0.523805E-01  0.608E-01    0.78       1.0  T
   5    -10.3462778 -0.608161E-02  0.242E-01    0.75       1.0  T
   6    -10.3467375 -0.459729E-03  0.149E-01    0.74       1.0  T
   7    -10.3469487 -0.211223E-03  0.738E-02    0.73       1.0  T
   8    -10.3469495 -0.799455E-06  0.538E-02    0.73       1.0  T
   9    -10.3469757 -0.261670E-04  0.365E-02    0.73       1.0  T
  10    -10.3469886 -0.129080E-04  0.227E-02    0.73       1.5  T
  11    -10.3469943 -0.568281E-05  0.515E-03    0.73       6.5  T
  12    -10.3469945 -0.205275E-06  0.251E-03    0.73      13.3  T
  13    -10.3469945 -0.654061E-07  0.746E-04    0.73      44.7  T
  14    -10.3469945 -0.703992E-09  0.161E-04    0.73     206.8  T
     SCC iter.                  ...        0 min,  0.002 sec
     gradient                   ...        0 min,  0.000 sec
 * total energy  :   -10.1002201 Eh     change       -0.1158771E-02 Eh
   gradient norm :     0.0290840 Eh/α   predicted    -0.3335254E-02 ( 187.83%)
   displ. norm   :     0.3297149 α      lambda       -0.4582389E-02
   maximum displ.:     0.1682213 α      in ANC's #6, #7, #5, ...

........................................................................
.............................. CYCLE   28 ..............................
........................................................................
   1    -10.3530985 -0.103531E+02  0.129E+00    0.80       0.0  T
   2    -10.3519379  0.116057E-02  0.781E-01    0.83       1.0  T
   3    -10.1983815  0.153556E+00  0.303E+00    0.52       1.0  T
   4    -10.3453402 -0.146959E+00  0.815E-01    0.72       1.0  T
   5    -10.3485971 -0.325690E-02  0.554E-01    0.75       1.0  T
   6    -10.3505489 -0.195182E-02  0.445E-01    0.76       1.0  T
   7    -10.3528847 -0.233571E-02  0.175E-01    0.79       1.0  T
   8    -10.3532108 -0.326122E-03  0.980E-02    0.80       1.0  T
   9    -10.3531981  0.127194E-04  0.807E-02    0.80       1.0  T
  10    -10.3532227 -0.246301E-04  0.554E-02    0.80       1.0  T
  11    -10.3532351 -0.124499E-04  0.282E-02    0.80       1.2  T
  12    -10.3532377 -0.257382E-05  0.114E-02    0.80       2.9  T
  13    -10.3532381 -0.372909E-06  0.610E-03    0.80       5.5  T
  14    -10.3532384 -0.300019E-06  0.222E-03    0.80      15.0  T
  15    -10.3532384 -0.233226E-07  0.120E-03    0.80      27.7  T
  16    -10.3532384 -0.616264E-08  0.246E-04    0.80     135.8  T
  17    -10.3532384 -0.190232E-09  0.214E-05    0.80    1554.3  T
     SCC iter.                  ...        0 min,  0.003 sec
     gradient                   ...        0 min,  0.000 sec
 * total energy  :   -10.1025985 Eh     change       -0.2378445E-02 Eh
   gradient norm :     0.0313563 Eh/α   predicted    -0.2540275E-02 (   6.80%)
   displ. norm   :     0.2274591 α      lambda       -0.1781181E-02
   maximum displ.:     0.1146886 α      in ANC's #5, #1, #7, ...

........................................................................
.............................. CYCLE   29 ..............................
........................................................................
   1    -10.3596572 -0.103597E+02  0.591E-01    0.86       0.0  T
   2    -10.3579777  0.167957E-02  0.469E-01    0.80       1.0  T
   3    -10.3520364  0.594126E-02  0.742E-01    0.90       1.0  T
   4    -10.3523220 -0.285597E-03  0.639E-01    0.81       1.0  T
   5    -10.3599143 -0.759231E-02  0.466E-02    0.83       1.0  T
   6    -10.3599285 -0.142160E-04  0.313E-02    0.83       1.1  T
   7    -10.3599289 -0.399489E-06  0.261E-02    0.83       1.3  T
   8    -10.3599344 -0.546687E-05  0.273E-03    0.84      12.2  T
   9    -10.3599344  0.285547E-07  0.242E-03    0.84      13.7  T
  10    -10.3599344 -0.711293E-07  0.936E-04    0.84      35.6  T
  11    -10.3599344 -0.114192E-07  0.215E-04    0.84     154.9  T
     SCC iter.                  ...        0 min,  0.002 sec
     gradient                   ...        0 min,  0.000 sec
 * total energy  :   -10.1029500 Eh     change       -0.3514480E-03 Eh
   gradient norm :     0.0224799 Eh/α   predicted    -0.9366673E-03 ( 166.52%)
   displ. norm   :     0.2742867 α      lambda       -0.1802880E-02
   maximum displ.:     0.1973353 α      in ANC's #6, #5, #4, ...

........................................................................
.............................. CYCLE   30 ..............................
........................................................................
   1    -10.3519091 -0.103519E+02  0.752E-01    0.86       0.0  T
   2    -10.3510394  0.869755E-03  0.457E-01    0.83       1.0  T
   3    -10.3211655  0.298739E-01  0.132E+00    0.94       1.0  T
   4    -10.3515684 -0.304030E-01  0.190E-01    0.86       1.0  T
   5    -10.3518789 -0.310445E-03  0.941E-02    0.86       1.0  T
   6    -10.3519630 -0.841688E-04  0.516E-02    0.85       1.0  T
   7    -10.3519691 -0.604164E-05  0.274E-02    0.85       1.2  T
   8    -10.3519791 -0.100336E-04  0.538E-03    0.85       6.2  T
   9    -10.3519791  0.289386E-07  0.438E-03    0.85       7.6  T
  10    -10.3519793 -0.220839E-06  0.151E-03    0.85      22.1  T
  11    -10.3519793 -0.222486E-07  0.364E-04    0.85      91.7  T
  12    -10.3519793 -0.869615E-10  0.150E-04    0.85     222.9  T
     SCC iter.                  ...        0 min,  0.002 sec
     gradient                   ...        0 min,  0.001 sec
 * total energy  :   -10.1034350 Eh     change       -0.4850777E-03 Eh
   gradient norm :     0.0231194 Eh/α   predicted    -0.9692598E-03 (  99.82%)
   displ. norm   :     0.2174481 α      lambda       -0.1544248E-02
   maximum displ.:     0.1225863 α      in ANC's #5, #9, #11, ...

........................................................................
.............................. CYCLE   31 ..............................
........................................................................
   1    -10.3518705 -0.103519E+02  0.967E-01    0.84       0.0  T
   2    -10.3507140  0.115655E-02  0.707E-01    0.90       1.0  T
   3    -10.3249690  0.257450E-01  0.135E+00    0.68       1.0  T
   4    -10.3390341 -0.140651E-01  0.846E-01    0.86       1.0  T
   5    -10.3519472 -0.129131E-01  0.115E-01    0.86       1.0  T
   6    -10.3520860 -0.138804E-03  0.518E-02    0.86       1.0  T
   7    -10.3521016 -0.156264E-04  0.319E-02    0.86       1.0  T
   8    -10.3521055 -0.390944E-05  0.767E-03    0.86       4.3  T
   9    -10.3521061 -0.631428E-06  0.423E-03    0.86       7.9  T
  10    -10.3521055  0.689653E-06  0.709E-03    0.86       4.7  T
  11    -10.3521062 -0.781051E-06  0.973E-04    0.86      34.3  T
  12    -10.3521062 -0.625669E-08  0.152E-04    0.86     220.0  T
     SCC iter.                  ...        0 min,  0.001 sec
     gradient                   ...        0 min,  0.000 sec
 * total energy  :   -10.1040225 Eh     change       -0.5874952E-03 Eh
   gradient norm :     0.0116434 Eh/α   predicted    -0.8086305E-03 (  37.64%)
   displ. norm   :     0.0930683 α      lambda       -0.5734309E-03
   maximum displ.:     0.0499583 α      in ANC's #11, #9, #6, ...

........................................................................
.............................. CYCLE   32 ..............................
........................................................................
   1    -10.3633238 -0.103633E+02  0.346E-01    0.88       0.0  T
   2    -10.3629550  0.368758E-03  0.282E-01    0.85       1.0  T
   3    -10.3628097  0.145259E-03  0.277E-01    0.88       1.0  T
   4    -10.3631306 -0.320863E-03  0.136E-01    0.87       1.0  T
   5    -10.3634427 -0.312121E-03  0.340E-02    0.87       1.0  T
   6    -10.3634403  0.237376E-05  0.226E-02    0.87       1.5  T
   7    -10.3634447 -0.430496E-05  0.135E-02    0.87       2.5  T
   8    -10.3634463 -0.162648E-05  0.648E-03    0.87       5.1  T
   9    -10.3634465 -0.208152E-06  0.412E-03    0.87       8.1  T
  10    -10.3634467 -0.214269E-06  0.155E-03    0.87      21.5  T
  11    -10.3634467 -0.224977E-07  0.232E-04    0.87     143.9  T
  12    -10.3634467  0.565651E-09  0.240E-04    0.87     138.8  T
     SCC iter.                  ...        0 min,  0.002 sec
     gradient                   ...        0 min,  0.000 sec
 * total energy  :   -10.1042115 Eh     change       -0.1889105E-03 Eh
   gradient norm :     0.0066081 Eh/α   predicted    -0.2892006E-03 (  53.09%)
   displ. norm   :     0.2173913 α      lambda       -0.4150137E-03
   maximum displ.:     0.1263213 α      in ANC's #5, #4, #6, ...

........................................................................
.............................. CYCLE   33 ..............................
........................................................................
   1    -10.3591507 -0.103592E+02  0.623E-01    0.88       0.0  T
[...]
   displ. norm   :     0.0856610 α      lambda       -0.9948374E-05
   maximum displ.:     0.0648843 α      in ANC's #1, #4, #8, ...

........................................................................
.............................. CYCLE   57 ..............................
........................................................................
   1    -10.3595909 -0.103596E+02  0.108E-01    0.86       0.0  T
   2    -10.3595907  0.226201E-06  0.682E-02    0.86       1.0  T
   3    -10.3595401  0.505519E-04  0.488E-02    0.86       1.0  T
   4    -10.3595872 -0.470424E-04  0.156E-02    0.86       2.1  T
   5    -10.3595901 -0.293883E-05  0.107E-02    0.86       3.1  T
   6    -10.3595911 -0.997676E-06  0.420E-03    0.86       7.9  T
   7    -10.3595912 -0.141826E-06  0.981E-04    0.86      34.0  T
   8    -10.3595913 -0.610695E-08  0.407E-04    0.86      81.9  T
     SCC iter.                  ...        0 min,  0.002 sec
     gradient                   ...        0 min,  0.001 sec
 * total energy  :   -10.1054679 Eh     change       -0.1115492E-04 Eh
   gradient norm :     0.0005954 Eh/α   predicted    -0.4990372E-05 ( -55.26%)
   displ. norm   :     0.0952295 α      lambda       -0.8557274E-05
   maximum displ.:     0.0675339 α      in ANC's #1, #4, #3, ...

........................................................................
.............................. CYCLE   58 ..............................
........................................................................
   1    -10.3592165 -0.103592E+02  0.154E-01    0.86       0.0  T
   2    -10.3592166 -0.139725E-06  0.973E-02    0.86       1.0  T
   3    -10.3592072  0.941747E-05  0.301E-02    0.85       1.1  T
   4    -10.3592130 -0.580672E-05  0.164E-02    0.86       2.0  T
   5    -10.3592074  0.563719E-05  0.218E-02    0.86       1.5  T
   6    -10.3592163 -0.892242E-05  0.715E-03    0.86       4.7  T
   7    -10.3592170 -0.706894E-06  0.944E-04    0.86      35.3  T
   8    -10.3592170 -0.125031E-07  0.286E-04    0.86     116.4  T
     SCC iter.                  ...        0 min,  0.002 sec
     gradient                   ...        0 min,  0.001 sec
 * total energy  :   -10.1054762 Eh     change       -0.8368430E-05 Eh
   gradient norm :     0.0012079 Eh/α   predicted    -0.4297265E-05 ( -48.65%)
   displ. norm   :     0.0810935 α      lambda       -0.5669048E-05
   maximum displ.:     0.0594645 α      in ANC's #1, #4, #2, ...

........................................................................
.............................. CYCLE   59 ..............................
........................................................................
   1    -10.3592213 -0.103592E+02  0.124E-01    0.86       0.0  T
   2    -10.3592215 -0.117821E-06  0.785E-02    0.86       1.0  T
   3    -10.3592145  0.693827E-05  0.205E-02    0.86       1.6  T
   4    -10.3592180 -0.344373E-05  0.150E-02    0.86       2.2  T
   5    -10.3592186 -0.631346E-06  0.136E-02    0.86       2.5  T
   6    -10.3592215 -0.292650E-05  0.440E-03    0.86       7.6  T
   7    -10.3592217 -0.154479E-06  0.580E-04    0.86      57.5  T
   8    -10.3592217  0.213980E-10  0.373E-04    0.86      89.3  T
     SCC iter.                  ...        0 min,  0.002 sec
     gradient                   ...        0 min,  0.001 sec
 * total energy  :   -10.1054826 Eh     change       -0.6364483E-05 Eh
   gradient norm :     0.0006400 Eh/α   predicted    -0.2843146E-05 ( -55.33%)
   displ. norm   :     0.1183615 α      lambda       -0.4946883E-05
   maximum displ.:     0.0817969 α      in ANC's #1, #4, #2, ...

........................................................................
.............................. CYCLE   60 ..............................
........................................................................
   1    -10.3594917 -0.103595E+02  0.175E-01    0.86       0.0  T
   2    -10.3594920 -0.301500E-06  0.111E-01    0.86       1.0  T
   3    -10.3594817  0.103083E-04  0.276E-02    0.86       1.2  T
   4    -10.3594744  0.733649E-05  0.295E-02    0.86       1.1  T
   5    -10.3594908 -0.163586E-04  0.132E-02    0.86       2.5  T
   6    -10.3594921 -0.133090E-05  0.527E-03    0.86       6.3  T
   7    -10.3594925 -0.393774E-06  0.794E-04    0.86      42.0  T
   8    -10.3594925 -0.543450E-08  0.418E-04    0.86      79.7  T
     SCC iter.                  ...        0 min,  0.001 sec
     gradient                   ...        0 min,  0.001 sec
 * total energy  :   -10.1054872 Eh     change       -0.4591577E-05 Eh
   gradient norm :     0.0004919 Eh/α   predicted    -0.2489778E-05 ( -45.78%)
   displ. norm   :     0.0670310 α      lambda       -0.1662406E-05
   maximum displ.:     0.0435613 α      in ANC's #1, #4, #2, ...

   *** GEOMETRY OPTIMIZATION CONVERGED AFTER 60 ITERATIONS ***

------------------------------------------------------------------------
 total energy gain   :        -0.7468702 Eh     -468.6681 kcal/mol
 total RMSD          :         2.2016861 a0        1.1651 Å
 total power (kW/mol):       -32.6817921 (step)-9222.2499 (real)
------------------------------------------------------------------------

 ANCopt (total)                0 d,  0 h,  0 min,  0.213 sec
 optimizer setup                ...        0 min,  0.000 sec (  0.013%)
 model hessian                  ...        0 min,  0.000 sec (  0.123%)
 ANC generation                 ...        0 min,  0.000 sec (  0.074%)
 coordinate transformation      ...        0 min,  0.000 sec (  0.080%)
 single point calculation       ...        0 min,  0.207 sec ( 97.193%)
 optimization log               ...        0 min,  0.002 sec (  0.748%)
 hessian update                 ...        0 min,  0.002 sec (  0.719%)
 rational function              ...        0 min,  0.001 sec (  0.510%)

================
 final structure:
================
9
 xtb: 6.5.1 (conda-forge)
Be           0.47134170241362        0.15603378280808       -0.58607421680345
B            1.47870024208993        0.22437024108125        0.71426980262222
C            2.32123320302543        0.26997087498019        1.81926410300665
C            3.09544031253278        0.31099443053250        2.82973879103924
C            3.88360430256019        0.35872424000034        3.88219109873530
H            4.22078289025959       -0.53781122958207        4.38571632931819
H            4.26122582443730        1.29481302351950        4.27143420740723
H            2.05657282899614        0.48278582123409        5.48627692619997
H            1.59709869368350        0.53516581542873        6.12168295847297

 Bond Distances (Angstroems)
 ---------------------------
Be1-B2=1.6463        B2-Be1=1.6463        B2-C3=1.3903         C3-B2=1.3903         C3-C4=1.2736         C4-C3=1.2736         
C4-C5=1.3157         C5-C4=1.3157         C5-H6=1.0821         C5-H7=1.0818         H6-C5=1.0821         H7-C5=1.0818         
H8-H9=0.7859         H9-H8=0.7859         
 H  H  Rav=0.7859 sigma=0.0000  Rmin=0.7859  Rmax=0.7859     1
 B  Be Rav=1.6463 sigma=0.0000  Rmin=1.6463  Rmax=1.6463     1
 C  H  Rav=1.0820 sigma=0.0001  Rmin=1.0818  Rmax=1.0821     2
 C  B  Rav=1.3903 sigma=0.0000  Rmin=1.3903  Rmax=1.3903     1
 C  C  Rav=1.2947 sigma=0.0210  Rmin=1.2736  Rmax=1.3157     2

 selected bond angles (degree)
 --------------------
C3-B2-Be1=179.33               C4-C3-B2=179.86                C5-C4-C3=179.33                H6-C5-C4=121.92                
H7-C5-C4=121.89                H7-C5-H6=116.15                

 selected dihedral angles (degree)
 ---------------------------------
C4-C3-B2-Be1=117.19           C5-C4-C3-B2=173.82            H6-C5-C4-C3=108.32            H7-C5-C4-C3=286.01            

 CMA Distance (Angstroems)
 ---------------------------
R(CMA):  3.8936
           -------------------------------------------------
          |                Final Singlepoint                |
           -------------------------------------------------

          ...................................................
          :                      SETUP                      :
          :.................................................:
          :  # basis functions                  24          :
          :  # atomic orbitals                  24          :
          :  # shells                           14          :
          :  # electrons                        21          :
          :  max. iterations                   250          :
          :  Hamiltonian                  GFN2-xTB          :
          :  restarted?                      false          :
          :  GBSA solvation                  false          :
          :  PC potential                    false          :
          :  electronic temp.          300.0000000     K    :
          :  accuracy                    1.0000000          :
          :  -> integral cutoff          0.2500000E+02      :
          :  -> integral neglect         0.1000000E-07      :
          :  -> SCF convergence          0.1000000E-05 Eh   :
          :  -> wf. convergence          0.1000000E-03 e    :
          :  Broyden damping             0.4000000          :
          ...................................................

 iter      E             dE          RMSdq      gap      omega  full diag
   1    -10.3594925 -0.103595E+02  0.225E-04    0.86       0.0  T
   2    -10.3594925  0.728324E-10  0.185E-04    0.86     180.5  T
   3    -10.3594925  0.112180E-09  0.167E-04    0.86     199.4  T

   *** convergence criteria satisfied after 3 iterations ***

         #    Occupation            Energy/Eh            Energy/eV
      -------------------------------------------------------------
         1        2.0000           -0.5447696             -14.8239
       ...           ...                  ...                  ...
         5        2.0000           -0.4301723             -11.7056
         6        2.0000           -0.4060490             -11.0492
         7        2.0000           -0.3716557             -10.1133
         8        2.0000           -0.3482755              -9.4771
         9        2.0000           -0.3361404              -9.1468
        10        2.0000           -0.2832078              -7.7065
        11        1.0000           -0.2360880              -6.4243 (HOMO)
        12                         -0.2045761              -5.5668 (LUMO)
        13                         -0.2029604              -5.5228
        14                         -0.1347436              -3.6666
        15                         -0.0962695              -2.6196
        16                          0.0133708               0.3638
       ...                                ...                  ...
        24                          1.3393683              36.4461
      -------------------------------------------------------------
                  HL-Gap            0.0315118 Eh            0.8575 eV
             Fermi-level           -0.2400298 Eh           -6.5315 eV

 SCC (total)                   0 d,  0 h,  0 min,  0.012 sec
 SCC setup                      ...        0 min,  0.000 sec (  0.870%)
 Dispersion                     ...        0 min,  0.000 sec (  1.870%)
 classical contributions        ...        0 min,  0.000 sec (  0.318%)
 integral evaluation            ...        0 min,  0.003 sec ( 21.856%)
 iterations                     ...        0 min,  0.008 sec ( 66.735%)
 molecular gradient             ...        0 min,  0.001 sec (  7.828%)
 printout                       ...        0 min,  0.000 sec (  0.422%)

         :::::::::::::::::::::::::::::::::::::::::::::::::::::
         ::                     SUMMARY                     ::
         :::::::::::::::::::::::::::::::::::::::::::::::::::::
         :: total energy             -10.105487178273 Eh    ::
         :: gradient norm              0.000489854444 Eh/a0 ::
         :: HOMO-LUMO gap              0.857480681929 eV    ::
         ::.................................................::
         :: SCC energy               -10.359492493443 Eh    ::
         :: -> isotropic ES           -0.005022483081 Eh    ::
         :: -> anisotropic ES          0.016150958738 Eh    ::
         :: -> anisotropic XC         -0.001968637213 Eh    ::
         :: -> dispersion             -0.004468869868 Eh    ::
         :: repulsion energy           0.254009119876 Eh    ::
         :: add. restraining           0.000000000000 Eh    ::
         :: total charge              -0.000000000027 e     ::
         :::::::::::::::::::::::::::::::::::::::::::::::::::::

           -------------------------------------------------
          |                Property Printout                |
           -------------------------------------------------

    * Orbital Energies and Occupations

         #    Occupation            Energy/Eh            Energy/eV
      -------------------------------------------------------------
         1        2.0000           -0.5447696             -14.8239
         2        2.0000           -0.5148552             -14.0099
         3        2.0000           -0.4515603             -12.2876
         4        2.0000           -0.4326830             -11.7739
         5        2.0000           -0.4301723             -11.7056
         6        2.0000           -0.4060490             -11.0492
         7        2.0000           -0.3716557             -10.1133
         8        2.0000           -0.3482755              -9.4771
         9        2.0000           -0.3361404              -9.1468
        10        2.0000           -0.2832078              -7.7065
        11        1.0000           -0.2360880              -6.4243 (HOMO)
        12                         -0.2045761              -5.5668 (LUMO)
        13                         -0.2029604              -5.5228
        14                         -0.1347436              -3.6666
        15                         -0.0962695              -2.6196
        16                          0.0133708               0.3638
        17                          0.0339053               0.9226
        18                          0.1578506               4.2953
        19                          0.1900602               5.1718
        20                          0.3501512               9.5281
        21                          0.3702920              10.0762
        22                          0.7107348              19.3401
       ...                                ...                  ...
        24                          1.3393683              36.4461
      -------------------------------------------------------------
                  HL-Gap            0.0315118 Eh            0.8575 eV
             Fermi-level           -0.2400298 Eh           -6.5315 eV

     #   Z          covCN         q      C6AA      α(0)
     1   4 Be       0.912     0.362    67.234    24.593
     2   5 B        1.820    -0.055    46.696    14.395
     3   6 C        1.889    -0.154    35.489     9.621
     4   6 C        1.962    -0.039    32.107     9.151
     5   6 C        2.832    -0.116    30.919     9.112
     6   1 H        0.925     0.006     2.950     2.686
     7   1 H        0.925     0.006     2.949     2.685
     8   1 H        0.784     0.017     2.845     2.653
     9   1 H        0.784    -0.029     3.704     3.028

 Mol. C6AA /au·bohr⁶  :       1449.674183
 Mol. C8AA /au·bohr⁸  :      43089.978580
 Mol. α(0) /au        :         77.924066


Wiberg/Mayer (AO) data.
largest (>0.10) Wiberg bond orders for each atom

 ---------------------------------------------------------------------------
     #   Z sym  total        # sym  WBO       # sym  WBO       # sym  WBO
 ---------------------------------------------------------------------------
     1   4 Be   1.522 --     2 B    1.328     3 C    0.166
     2   5 B    3.328 --     3 C    1.758     1 Be   1.328     5 C    0.208
     3   6 C    3.954 --     4 C    1.952     2 B    1.758     1 Be   0.166
     4   6 C    3.768 --     3 C    1.952     5 C    1.740
     5   6 C    3.889 --     4 C    1.740     6 H    0.949     7 H    0.949
                             2 B    0.208
     6   1 H    0.983 --     5 C    0.949
     7   1 H    0.982 --     5 C    0.949
     8   1 H    1.000 --     9 H    0.983
     9   1 H    0.995 --     8 H    0.983
 ---------------------------------------------------------------------------

Topologies differ in total number of bonds
Writing topology from bond orders to xtbtopo.mol

molecular dipole:
                 x           y           z       tot (Debye)
 q only:       -1.499      -0.101      -2.114
   full:       -2.157      -0.141      -2.962       9.321
molecular quadrupole (traceless):
                xx          xy          yy          xz          yz          zz
 q only:       -4.799      -1.463       9.866     -14.708      -1.833      -5.068
  q+dip:       -6.704      -1.508       5.059      -8.199      -1.746       1.645
   full:       -6.482      -1.712       7.023     -11.922      -1.940      -0.541

           -------------------------------------------------
          |                Geometry Summary                 |
           -------------------------------------------------

      molecular mass/u    :       59.8871818
   center of mass at/Å    :        2.4073487       0.2823190       2.0928042
  moments of inertia/u·Å² :        0.1639874E+02   0.2391473E+03   0.2521448E+03
rotational constants/cm⁻¹ :        0.1027983E+01   0.7049057E-01   0.6685696E-01

 * 7 selected distances

     #   Z          #   Z                                           value/Å
     1   4 Be       2   5 B                                       1.6463099 (max)
     2   5 B        3   6 C                                       1.3903071
     3   6 C        4   6 C                                       1.2736322
     4   6 C        5   6 C                                       1.3157267
     5   6 C        6   1 H                                       1.0821290
     5   6 C        7   1 H                                       1.0818367
     8   1 H        9   1 H                                       0.7858760 (min)

 * 5 distinct bonds (by element types)

   Z      Z             #   av. dist./Å        max./Å        min./Å
   1 H    1 H           1     0.7858760     0.7858760     0.7858760
   4 Be   5 B           1     1.6463099     1.6463099     1.6463099
   1 H    6 C           2     1.0819828     1.0821290     1.0818367
   5 B    6 C           1     1.3903071     1.3903071     1.3903071
   6 C    6 C           2     1.2946795     1.3157267     1.2736322


optimized geometry written to: xtbopt.xyz


           -------------------------------------------------
          | TOTAL ENERGY              -10.105487178273 Eh   |
          | GRADIENT NORM               0.000489854444 Eh/α |
          | HOMO-LUMO GAP               0.857480681929 eV   |
           -------------------------------------------------
########################################################################
Note: The following floating-point exceptions are signalling: IEEE_UNDERFLOW_FLAG
normal termination of xtb
[WARNING] Runtime exception occurred
-3- restart_readRestart: Dimension missmatch in restart file.
-2- restart_readRestart: Multiplicity missmatch in restart file.
-1- restart_readRestart: Number of electron missmatch in restart file.
########################################################################

------------------------------------------------------------------------
 * finished run on 2025/06/07 at 03:27:48.736     
------------------------------------------------------------------------
 total:
 * wall-time:     0 d,  0 h,  0 min,  0.263 sec
 *  cpu-time:     0 d,  0 h,  0 min,  3.698 sec
 * ratio c/w:    14.046 speedup
 SCF:
 * wall-time:     0 d,  0 h,  0 min,  0.034 sec
 *  cpu-time:     0 d,  0 h,  0 min,  0.480 sec
 * ratio c/w:    14.027 speedup
 ANC optimizer:
 * wall-time:     0 d,  0 h,  0 min,  0.225 sec
 *  cpu-time:     0 d,  0 h,  0 min,  3.178 sec
 * ratio c/w:    14.093 speedup

