      -----------------------------------------------------------      
     |                   =====================                   |     
     |                           x T B                           |     
     |                   =====================                   |     
     |                         S. Grimme                         |     
     |          Mulliken Center for Theoretical Chemistry        |     
     |                    University of Bonn                     |     
      -----------------------------------------------------------      

   * xtb version 6.5.1 (conda-forge) compiled by 'runner@Mac-1657629245115.local' on 2022-07-12

   xtb is free software: you can redistribute it and/or modify it under
   the terms of the GNU Lesser General Public License as published by
   the Free Software Foundation, either version 3 of the License, or
   (at your option) any later version.
   
   xtb is distributed in the hope that it will be useful,
   but WITHOUT ANY WARRANTY; without even the implied warranty of
   MERCHANTABILITY or FITNESS FOR A PARTICULAR PURPOSE.  See the
   GNU Lesser General Public License for more details.
   
   Cite this work as:
   * C. Bannwarth, E. Caldeweyher, S. Ehlert, A. Hansen, P. Pracht,
     J. Seibert, S. Spicher, S. Grimme, WIREs Comput. Mol. Sci., 2020, 11,
     e01493. DOI: 10.1002/wcms.1493
   
   for GFN2-xTB:
   * C. Bannwarth, S. Ehlert and S. Grimme., J. Chem. Theory Comput., 2019,
     15, 1652-1671. DOI: 10.1021/acs.jctc.8b01176
   for GFN1-xTB:
   * S. Grimme, C. Bannwarth, P. Shushkov, J. Chem. Theory Comput., 2017,
     13, 1989-2009. DOI: 10.1021/acs.jctc.7b00118
   for GFN0-xTB:
   * P. Pracht, E. Caldeweyher, S. Ehlert, S. Grimme, ChemRxiv, 2019, preprint.
     DOI: 10.26434/chemrxiv.8326202.v1
   for GFN-FF:
   * S. Spicher and S. Grimme, Angew. Chem. Int. Ed., 2020, 59, 15665-15673.
     DOI: 10.1002/anie.202004239
   
   for ALPB and GBSA implicit solvation:
   * S. Ehlert, M. Stahn, S. Spicher, S. Grimme, J. Chem. Theory Comput.,
     2021, 17, 4250-4261. DOI: 10.1021/acs.jctc.1c00471
   
   for DFT-D4:
   * E. Caldeweyher, C. Bannwarth and S. Grimme, J. Chem. Phys., 2017,
     147, 034112. DOI: 10.1063/1.4993215
   * E. Caldeweyher, S. Ehlert, A. Hansen, H. Neugebauer, S. Spicher,
     C. Bannwarth and S. Grimme, J. Chem. Phys., 2019, 150, 154122.
     DOI: 10.1063/1.5090222
   * E. Caldeweyher, J.-M. Mewes, S. Ehlert and S. Grimme, Phys. Chem. Chem. Phys.
     2020, 22, 8499-8512. DOI: 10.1039/D0CP00502A
   
   for sTDA-xTB:
   * S. Grimme and C. Bannwarth, J. Chem. Phys., 2016, 145, 054103.
     DOI: 10.1063/1.4959605
   
   in the mass-spec context:
   * V. Asgeirsson, C. Bauer and S. Grimme, Chem. Sci., 2017, 8, 4879.
     DOI: 10.1039/c7sc00601b
   * J. Koopman and S. Grimme, ACS Omega 2019, 4, 12, 15120-15133.
     DOI: 10.1021/acsomega.9b02011
   
   for metadynamics refer to:
   * S. Grimme, J. Chem. Theory Comput., 2019, 155, 2847-2862
     DOI: 10.1021/acs.jctc.9b00143
   
   for SPH calculations refer to:
   * S. Spicher and S. Grimme, J. Chem. Theory Comput., 2021, 17, 1701-1714
     DOI: 10.1021/acs.jctc.0c01306
   
   with help from (in alphabetical order)
   P. Atkinson, C. Bannwarth, F. Bohle, G. Brandenburg, E. Caldeweyher
   M. Checinski, S. Dohm, S. Ehlert, S. Ehrlich, I. Gerasimov, C. Hölzer
   A. Katbashev, J. Koopman, C. Lavigne, S. Lehtola, F. März, M. Müller,
   F. Musil, H. Neugebauer, J. Pisarek, C. Plett, P. Pracht, F. Pultar,
   J. Seibert, P. Shushkov, S. Spicher, M. Stahn, M. Steiner, T. Strunk,
   J. Stückrath, T. Rose, and J. Unsleber
   
 * started run on 2025/06/07 at 03:27:49.050     

           -------------------------------------------------
          |                Calculation Setup                |
           -------------------------------------------------

          program call               : xtb BBeC3H6.xyz --gfn 2 --opt
          coordinate file            : BBeC3H6.xyz
          omp threads                :                    16

   ID    Z sym.   atoms
    1    4 Be     1
    2    5 B      2
    3    6 C      3-5
    4    1 H      6-11

molecular fragmentation (1/2 indicates fragments):
12222222222
# atoms in fragment 1/2:     1    10
 fragment masses (1/2) :        9.01       52.89
CMA distance (Bohr)    :   7.490
constraining FC (au)   :  0.0500

           -------------------------------------------------
          |                 G F N 2 - x T B                 |
           -------------------------------------------------

        Reference                      10.1021/acs.jctc.8b01176
      * Hamiltonian:
        H0-scaling (s, p, d)           1.850000    2.230000    2.230000
        zeta-weighting                 0.500000
      * Dispersion:
        s8                             2.700000
        a1                             0.520000
        a2                             5.000000
        s9                             5.000000
      * Repulsion:
        kExp                           1.500000    1.000000
        rExp                           1.000000
      * Coulomb:
        alpha                          2.000000
        third order                    shell-resolved
        anisotropic                    true
        a3                             3.000000
        a5                             4.000000
        cn-shift                       1.200000
        cn-exp                         4.000000
        max-rad                        5.000000


          ...................................................
          :                      SETUP                      :
          :.................................................:
          :  # basis functions                  26          :
          :  # atomic orbitals                  26          :
          :  # shells                           16          :
          :  # electrons                        23          :
          :  max. iterations                   250          :
          :  Hamiltonian                  GFN2-xTB          :
          :  restarted?                      false          :
          :  GBSA solvation                  false          :
          :  PC potential                    false          :
          :  electronic temp.          300.0000000     K    :
          :  accuracy                    1.0000000          :
          :  -> integral cutoff          0.2500000E+02      :
          :  -> integral neglect         0.1000000E-07      :
          :  -> SCF convergence          0.1000000E-05 Eh   :
          :  -> wf. convergence          0.1000000E-03 e    :
          :  Broyden damping             0.4000000          :
          ...................................................

 iter      E             dE          RMSdq      gap      omega  full diag
   1     12.5038996  0.125039E+02  0.221E+01    0.08       0.0  T
   2     -6.0381364 -0.185420E+02  0.162E+01    1.06       1.0  T
   3     -7.0900186 -0.105188E+01  0.132E+01    1.08       1.0  T
   4     -7.9473858 -0.857367E+00  0.100E+01    0.70       1.0  T
   5     -8.4599694 -0.512584E+00  0.808E+00    0.53       1.0  T
   6     -7.6523698  0.807600E+00  0.104E+01    1.11       1.0  T
   7     -8.7700597 -0.111769E+01  0.766E+00    0.52       1.0  T
   8     -7.7898796  0.980180E+00  0.991E+00    0.71       1.0  T
   9     -8.2177458 -0.427866E+00  0.871E+00    0.76       1.0  T
  10     -8.4151179 -0.197372E+00  0.811E+00    0.71       1.0  T
  11     -9.1384799 -0.723362E+00  0.598E+00    0.58       1.0  T
  12     -9.4084490 -0.269969E+00  0.554E+00    0.56       1.0  T
  13     14.8592529  0.242677E+02  0.307E+01    0.20       1.0  T
  14     14.7214824 -0.137770E+00  0.293E+01    0.19       1.0  T
  15     15.1483507  0.426868E+00  0.313E+01    0.21       1.0  T
  16     14.9456230 -0.202728E+00  0.317E+01    0.21       1.0  T
  17     14.5834933 -0.362130E+00  0.304E+01    0.18       1.0  T
  18     -8.2842729 -0.228678E+02  0.994E+00    0.26       1.0  T
  19     -8.5207193 -0.236446E+00  0.971E+00    0.29       1.0  T
  20     -8.6069808 -0.862615E-01  0.963E+00    0.30       1.0  T
  21     -9.2439727 -0.636992E+00  0.922E+00    0.39       1.0  T
  22    -10.0432786 -0.799306E+00  0.745E+00    0.38       1.0  T
  23    -10.2441371 -0.200858E+00  0.709E+00    0.30       1.0  T
  24    -10.3851459 -0.141009E+00  0.795E+00    0.18       1.0  T
  25     -9.9230565  0.462089E+00  0.900E+00    0.55       1.0  T
  26    -10.3069756 -0.383919E+00  0.519E+00    0.38       1.0  T
  27    -10.1250125  0.181963E+00  0.534E+00    0.54       1.0  T
  28    -10.0900126  0.349999E-01  0.504E+00    0.53       1.0  T
  29     -9.4649793  0.625033E+00  0.109E+01    0.44       1.0  T
  30     -7.1743935  0.229059E+01  0.114E+01    0.31       1.0  T
  31    -10.0737289 -0.289934E+01  0.427E+00    0.47       1.0  T
  32    -10.1848515 -0.111123E+00  0.482E+00    0.44       1.0  T
  33     -9.5162134  0.668638E+00  0.151E+01    0.46       1.0  T
  34     -9.6394963 -0.123283E+00  0.160E+01    0.47       1.0  T
  35     -9.6958006 -0.563043E-01  0.157E+01    0.47       1.0  T
  36     -9.8593896 -0.163589E+00  0.146E+01    0.47       1.0  T
  37     -9.6353486  0.224041E+00  0.157E+01    0.47       1.0  T
  38    -10.2755400 -0.640191E+00  0.114E+01    0.36       1.0  T
  39     -9.4702990  0.805241E+00  0.156E+01    0.46       1.0  T
  40    -10.1973843 -0.727085E+00  0.116E+01    0.39       1.0  T
  41     -9.3276954  0.869689E+00  0.149E+01    0.45       1.0  T
  42    -10.2066536 -0.878958E+00  0.110E+01    0.37       1.0  T
  43     -9.7005475  0.506106E+00  0.134E+01    0.45       1.0  T
  44    -10.1880734 -0.487526E+00  0.108E+01    0.37       1.0  T
  45     -9.1103763  0.107770E+01  0.142E+01    0.45       1.0  T
  46     -7.9034096  0.120697E+01  0.131E+01    0.48       1.0  T
  47      8.6176148  0.165210E+02  0.177E+01    0.14       1.0  T
  48      9.9184769  0.130086E+01  0.184E+01    0.14       1.0  T
  49      9.2771883 -0.641289E+00  0.181E+01    0.14       1.0  T
  50      9.1670375 -0.110151E+00  0.180E+01    0.14       1.0  T
  51      8.7114713 -0.455566E+00  0.179E+01    0.13       1.0  T
  52     -9.9821387 -0.186936E+02  0.577E+00    0.40       1.0  T
  53     -8.9211398  0.106100E+01  0.951E+00    0.49       1.0  T
  54     -9.2311556 -0.310016E+00  0.686E+00    0.44       1.0  T
  55     -9.8977564 -0.666601E+00  0.595E+00    0.42       1.0  T
  56    -10.0307322 -0.132976E+00  0.620E+00    0.41       1.0  T
  57     -9.9691697  0.615625E-01  0.618E+00    0.41       1.0  T
  58    -10.0228787 -0.537090E-01  0.634E+00    0.41       1.0  T
  59    -10.1935947 -0.170716E+00  0.661E+00    0.41       1.0  T
  60    -10.2248286 -0.312339E-01  0.668E+00    0.40       1.0  T
  61    -10.1843375  0.404911E-01  0.656E+00    0.41       1.0  T
  62    -10.1645435  0.197940E-01  0.642E+00    0.41       1.0  T
  63    -10.2092655 -0.447220E-01  0.620E+00    0.41       1.0  T
  64    -10.1914545  0.178110E-01  0.623E+00    0.41       1.0  T
  65    -10.1783046  0.131499E-01  0.630E+00    0.41       1.0  T
  66    -10.1779958  0.308795E-03  0.605E+00    0.41       1.0  T
  67    -10.1174806  0.605151E-01  0.510E+00    0.41       1.0  T
  68    -10.0666959  0.507848E-01  0.444E+00    0.41       1.0  T
  69    -10.0491989  0.174970E-01  0.418E+00    0.41       1.0  T
  70    -10.0474129  0.178597E-02  0.410E+00    0.41       1.0  T
  71    -10.0538161 -0.640323E-02  0.409E+00    0.41       1.0  T
  72    -10.0633794 -0.956321E-02  0.405E+00    0.42       1.0  T
  73    -10.0795179 -0.161385E-01  0.390E+00    0.42       1.0  T
  74    -10.0994943 -0.199765E-01  0.370E+00    0.42       1.0  T
  75    -10.1305293 -0.310349E-01  0.347E+00    0.42       1.0  T
  76    -10.1699381 -0.394088E-01  0.323E+00    0.43       1.0  T
  77    -10.1956624 -0.257243E-01  0.312E+00    0.43       1.0  T
  78    -10.2231671 -0.275046E-01  0.307E+00    0.42       1.0  T
  79    -10.2484672 -0.253001E-01  0.303E+00    0.40       1.0  T
  80    -10.2604602 -0.119930E-01  0.295E+00    0.39       1.0  T
  81    -10.2612748 -0.814567E-03  0.289E+00    0.39       1.0  T
  82    -10.2756013 -0.143266E-01  0.283E+00    0.37       1.0  T
  83    -10.3405042 -0.649029E-01  0.258E+00    0.23       1.0  T
  84    -10.4109434 -0.704392E-01  0.246E+00    0.12       1.0  T
  85    -10.3985646  0.123788E-01  0.255E+00    0.12       1.0  T
  86    -10.3338092  0.647554E-01  0.271E+00    0.22       1.0  T
  87    -10.3585436 -0.247344E-01  0.258E+00    0.18       1.0  T
  88    -10.3670898 -0.854616E-02  0.253E+00    0.17       1.0  T
  89    -10.4704382 -0.103348E+00  0.260E+00    0.08       1.0  T
  90    -10.4602204  0.102179E-01  0.252E+00    0.07       1.0  T
  91    -10.2472451  0.212975E+00  0.329E+00    0.35       1.0  T
  92    -10.4530243 -0.205779E+00  0.356E+00    0.12       1.0  T
  93    -10.1828559  0.270168E+00  0.386E+00    0.40       1.0  T
  94    -10.4598292 -0.276973E+00  0.330E+00    0.11       1.0  T
  95    -10.1863719  0.273457E+00  0.379E+00    0.40       1.0  T
  96    -10.3730237 -0.186652E+00  0.265E+00    0.14       1.0  T
  97    -10.3135883  0.594353E-01  0.284E+00    0.25       1.0  T
  98    -10.3125518  0.103653E-02  0.275E+00    0.26       1.0  T
  99    -10.3484970 -0.359452E-01  0.248E+00    0.20       1.0  T
 100    -10.4049481 -0.564512E-01  0.205E+00    0.13       1.0  T
 101    -10.4518998 -0.469517E-01  0.183E+00    0.09       1.0  T
 102    -10.4077409  0.441589E-01  0.220E+00    0.12       1.0  T
 103    -10.3299089  0.778320E-01  0.270E+00    0.23       1.0  T
 104    -10.3319918 -0.208291E-02  0.263E+00    0.24       1.0  T
 105    -10.3423986 -0.104068E-01  0.255E+00    0.22       1.0  T
 106    -10.3466280 -0.422941E-02  0.252E+00    0.21       1.0  T
 107    -10.3444160  0.221204E-02  0.253E+00    0.21       1.0  T
 108    -10.3394495  0.496649E-02  0.255E+00    0.22       1.0  T
 109    -10.3471410 -0.769151E-02  0.249E+00    0.20       1.0  T
 110    -10.3644628 -0.173217E-01  0.238E+00    0.17       1.0  T
 111    -10.3701401 -0.567733E-02  0.234E+00    0.17       1.0  T
 112    -10.3704456 -0.305474E-03  0.234E+00    0.16       1.0  T
 113    -10.3798149 -0.936930E-02  0.226E+00    0.15       1.0  T
 114    -10.3917253 -0.119104E-01  0.218E+00    0.14       1.0  T
 115    -10.4004917 -0.876644E-02  0.213E+00    0.13       1.0  T
 116    -10.4024038 -0.191214E-02  0.214E+00    0.13       1.0  T
 117    -10.4019786  0.425230E-03  0.214E+00    0.13       1.0  T
 118    -10.4040273 -0.204872E-02  0.209E+00    0.13       1.0  T
 119    -10.4194734 -0.154460E-01  0.191E+00    0.12       1.0  T
 120    -10.4495233 -0.300499E-01  0.186E+00    0.09       1.0  T
 121    -10.4412241  0.829917E-02  0.192E+00    0.10       1.0  T
 122    -10.4191357  0.220884E-01  0.194E+00    0.12       1.0  T
 123    -10.4512117 -0.320760E-01  0.190E+00    0.09       1.0  T
 124    -10.4486634  0.254832E-02  0.195E+00    0.09       1.0  T
 125    -10.4298920  0.187714E-01  0.195E+00    0.11       1.0  T
 126    -10.4530191 -0.231272E-01  0.195E+00    0.09       1.0  T
 127    -10.4380294  0.149897E-01  0.195E+00    0.10       1.0  T
 128    -10.4499447 -0.119152E-01  0.196E+00    0.09       1.0  T
 129    -10.4441548  0.578991E-02  0.196E+00    0.09       1.0  T
 130    -10.4484540 -0.429921E-02  0.197E+00    0.09       1.0  T
 131    -10.4478192  0.634798E-03  0.197E+00    0.09       1.0  T
 132    -10.4475761  0.243116E-03  0.197E+00    0.09       1.0  T
 133    -10.4511408 -0.356480E-02  0.197E+00    0.09       1.0  T
 134    -10.4471226  0.401826E-02  0.196E+00    0.09       1.0  T
 135    -10.4537949 -0.667227E-02  0.197E+00    0.09       1.0  T
 136    -10.4479406  0.585422E-02  0.193E+00    0.09       1.0  T
 137    -10.4554048 -0.746411E-02  0.194E+00    0.09       1.0  T
 138    -10.4508409  0.456386E-02  0.189E+00    0.09       1.0  T
 139    -10.4553873 -0.454639E-02  0.184E+00    0.09       1.0  T
 140    -10.4660882 -0.107009E-01  0.175E+00    0.09       1.0  T
 141    -10.4463312  0.197570E-01  0.144E+00    0.12       1.0  T
 142    -10.4287343  0.175969E-01  0.141E+00    0.15       1.0  T
 143    -10.4621891 -0.334549E-01  0.102E+00    0.12       1.0  T
 144    -10.4381282  0.240609E-01  0.286E+00    0.15       1.0  T
 145    -10.3937130  0.444153E-01  0.219E+00    0.16       1.0  T
 146    -10.3134182  0.802948E-01  0.243E+00    0.38       1.0  T
 147    -10.3649316 -0.515134E-01  0.197E+00    0.27       1.0  T
 148    -10.4750484 -0.110117E+00  0.116E+00    0.11       1.0  T
 149    -10.3505558  0.124493E+00  0.406E+00    0.26       1.0  T
 150    -10.2823165  0.682393E-01  0.317E+00    0.34       1.0  T
 151    -10.3104917 -0.281752E-01  0.243E+00    0.37       1.0  T
 152    -10.4437827 -0.133291E+00  0.104E+00    0.15       1.0  T
 153    -10.3848761  0.589066E-01  0.373E+00    0.20       1.0  T
 154    -10.4179411 -0.330650E-01  0.184E+00    0.15       1.0  T
 155    -10.3876086  0.303325E-01  0.183E+00    0.23       1.0  T
 156    -10.4657341 -0.781255E-01  0.807E-01    0.13       1.0  T
 157    -10.4076064  0.581276E-01  0.333E+00    0.19       1.0  T
 158    -10.4115290 -0.392251E-02  0.190E+00    0.16       1.0  T
 159    -10.4113497  0.179214E-03  0.161E+00    0.19       1.0  T
 160    -10.4747330 -0.633832E-01  0.928E-01    0.13       1.0  T
 161    -10.4442389  0.304941E-01  0.263E+00    0.16       1.0  T
 162    -10.4458502 -0.161133E-02  0.139E+00    0.14       1.0  T
 163    -10.4478859 -0.203566E-02  0.113E+00    0.15       1.0  T
 164    -10.4730951 -0.252092E-01  0.870E-01    0.13       1.0  T
 165    -10.4764702 -0.337507E-02  0.125E+00    0.13       1.0  T
 166    -10.4721441  0.432608E-02  0.984E-01    0.13       1.0  T
 167    -10.4639297  0.821441E-02  0.958E-01    0.14       1.0  T
 168    -10.4636728  0.256850E-03  0.936E-01    0.14       1.0  T
 169    -10.4674072 -0.373431E-02  0.889E-01    0.14       1.0  T
 170    -10.4693678 -0.196066E-02  0.883E-01    0.14       1.0  T
 171    -10.4643261  0.504175E-02  0.970E-01    0.14       1.0  T
 172    -10.4535911  0.107350E-01  0.120E+00    0.16       1.0  T
 173    -10.4448116  0.877956E-02  0.141E+00    0.17       1.0  T
 174    -10.4407523  0.405924E-02  0.151E+00    0.17       1.0  T
 175    -10.4421861 -0.143381E-02  0.150E+00    0.18       1.0  T
 176    -10.4561792 -0.139931E-01  0.126E+00    0.17       1.0  T
 177    -10.4725431 -0.163639E-01  0.101E+00    0.16       1.0  T
 178    -10.4771723 -0.462921E-02  0.116E+00    0.15       1.0  T
 179    -10.4770112  0.161125E-03  0.120E+00    0.16       1.0  T
 180    -10.4771475 -0.136238E-03  0.109E+00    0.16       1.0  T
 181    -10.4771071  0.403264E-04  0.112E+00    0.16       1.0  T
 182    -10.4754505  0.165663E-02  0.123E+00    0.16       1.0  T
 183    -10.4756276 -0.177132E-03  0.117E+00    0.16       1.0  T
 184    -10.4771133 -0.148569E-02  0.930E-01    0.16       1.0  T
 185    -10.4772755 -0.162217E-03  0.827E-01    0.16       1.0  T
 186    -10.4763764  0.899162E-03  0.807E-01    0.16       1.0  T
 187    -10.4749038  0.147253E-02  0.847E-01    0.17       1.0  T
 188    -10.4740323  0.871543E-03  0.872E-01    0.17       1.0  T
 189    -10.4739474  0.848678E-04  0.866E-01    0.17       1.0  T
 190    -10.4763304 -0.238299E-02  0.708E-01    0.16       1.0  T
 191    -10.4771700 -0.839594E-03  0.634E-01    0.16       1.0  T
 192    -10.4770284  0.141611E-03  0.559E-01    0.16       1.0  T
 193    -10.4767700  0.258411E-03  0.449E-01    0.16       1.0  T
 194    -10.4774260 -0.656044E-03  0.334E-01    0.15       1.0  T
 195    -10.4775027 -0.766816E-04  0.370E-01    0.15       1.0  T
 196    -10.4773759  0.126812E-03  0.385E-01    0.15       1.0  T
 197    -10.4771836  0.192261E-03  0.418E-01    0.14       1.0  T
 198    -10.4768354  0.348288E-03  0.471E-01    0.14       1.0  T
 199    -10.4767580  0.773879E-04  0.472E-01    0.14       1.0  T
 200    -10.4767165  0.414391E-04  0.464E-01    0.14       1.0  T
 201    -10.4766438  0.727138E-04  0.455E-01    0.14       1.0  T
 202    -10.4769205 -0.276725E-03  0.389E-01    0.14       1.0  T
 203    -10.4770668 -0.146249E-03  0.351E-01    0.14       1.0  T
 204    -10.4771614 -0.946157E-04  0.320E-01    0.14       1.0  T
 205    -10.4772888 -0.127382E-03  0.279E-01    0.14       1.0  T
 206    -10.4773681 -0.793128E-04  0.247E-01    0.14       1.0  T
 207    -10.4774224 -0.543445E-04  0.219E-01    0.14       1.0  T
 208    -10.4774734 -0.509354E-04  0.188E-01    0.14       1.0  T
 209    -10.4775094 -0.360271E-04  0.159E-01    0.14       1.0  T
 210    -10.4775353 -0.258592E-04  0.133E-01    0.14       1.0  T
 211    -10.4775558 -0.205230E-04  0.108E-01    0.14       1.0  T
 212    -10.4775703 -0.145109E-04  0.847E-02    0.14       1.0  T
 213    -10.4775801 -0.977716E-05  0.648E-02    0.14       1.0  T
 214    -10.4775866 -0.654616E-05  0.480E-02    0.14       1.0  T
 215    -10.4775907 -0.406703E-05  0.345E-02    0.14       1.0  T
 216    -10.4775931 -0.237303E-05  0.241E-02    0.14       1.2  T
 217    -10.4775945 -0.138914E-05  0.161E-02    0.14       1.9  T
 218    -10.4775953 -0.810100E-06  0.966E-03    0.14       3.1  T
 219    -10.4775957 -0.430064E-06  0.467E-03    0.14       6.5  T
 220    -10.4775959 -0.170005E-06  0.172E-03    0.14      17.5  T
 221    -10.4775959 -0.391407E-07  0.102E-03    0.14      29.7  T
 222    -10.4775959 -0.153955E-07  0.105E-03    0.14      28.6  T
 223    -10.4775959 -0.803499E-08  0.101E-03    0.14      29.8  T
 224    -10.4775959 -0.168343E-07  0.349E-04    0.14      86.3  T
 225    -10.4775959  0.320908E-09  0.342E-04    0.14      88.1  T

   *** convergence criteria satisfied after 225 iterations ***

         #    Occupation            Energy/Eh            Energy/eV
      -------------------------------------------------------------
         1        2.0000           -0.5913309             -16.0909
       ...           ...                  ...                  ...
         6        2.0000           -0.3842736             -10.4566
         7        2.0000           -0.3657055              -9.9514
         8        2.0000           -0.3245536              -8.8316
         9        2.0000           -0.3157388              -8.5917
        10        2.0000           -0.3106845              -8.4542
        11        1.9997           -0.2838228              -7.7232
        12        0.9369           -0.2686071              -7.3092 (HOMO)
        13        0.0634           -0.2634901              -7.1699 (LUMO)
        14                         -0.2478730              -6.7450
        15                         -0.2237402              -6.0883
        16                         -0.2120298              -5.7696
        17                         -0.2048401              -5.5740
       ...                                ...                  ...
        26                          0.7702260              20.9589
      -------------------------------------------------------------
                  HL-Gap            0.0051170 Eh            0.1392 eV
             Fermi-level           -0.2711328 Eh           -7.3779 eV

 SCC (total)                   0 d,  0 h,  0 min,  0.156 sec
 SCC setup                      ...        0 min,  0.000 sec (  0.038%)
 Dispersion                     ...        0 min,  0.000 sec (  0.062%)
 classical contributions        ...        0 min,  0.000 sec (  0.068%)
 integral evaluation            ...        0 min,  0.000 sec (  0.093%)
 iterations                     ...        0 min,  0.156 sec ( 99.492%)
 molecular gradient             ...        0 min,  0.000 sec (  0.217%)
 printout                       ...        0 min,  0.000 sec (  0.021%)

         :::::::::::::::::::::::::::::::::::::::::::::::::::::
         ::                     SUMMARY                     ::
         :::::::::::::::::::::::::::::::::::::::::::::::::::::
         :: total energy             -10.392205768434 Eh    ::
         :: gradient norm              0.273394704778 Eh/a0 ::
         :: HOMO-LUMO gap              0.139240996333 eV    ::
         ::.................................................::
         :: SCC energy               -10.477595943078 Eh    ::
         :: -> isotropic ES           -0.052234852149 Eh    ::
         :: -> anisotropic ES          0.007123570448 Eh    ::
         :: -> anisotropic XC         -0.013287739862 Eh    ::
         :: -> dispersion             -0.008400631817 Eh    ::
         :: repulsion energy           0.085388507040 Eh    ::
         :: add. restraining           0.000000000000 Eh    ::
         :: total charge              -0.000000000002 e     ::
         :::::::::::::::::::::::::::::::::::::::::::::::::::::

      ----------------------------------------------------------- 
     |                   =====================                   |
     |                        A N C O P T                        |
     |                   =====================                   |
     |               Approximate Normal Coordinate               |
     |                Rational Function Optimizer                |
      ----------------------------------------------------------- 

          ...................................................
          :                      SETUP                      :
          :.................................................:
          :   optimization level            normal          :
          :   max. optcycles                   200          :
          :   ANC micro-cycles                  20          :
          :   degrees of freedom                27          :
          :.................................................:
          :   RF solver                   davidson          :
          :   write xtbopt.log                true          :
          :   linear?                        false          :
          :   energy convergence         0.5000000E-05 Eh   :
          :   grad. convergence          0.1000000E-02 Eh/α :
          :   maximium RF displ.         1.0000000          :
          :   Hlow (freq-cutoff)         0.1000000E-01      :
          :   Hmax (freq-cutoff)         5.0000000          :
          :   S6 in model hess.         20.0000000          :
          ...................................................

generating ANC from model Hessian ...
Using Lindh-Hessian (1995)
 Shifting diagonal of input Hessian by    1.4438674558155342E-002
 Lowest  eigenvalues of input Hessian
    0.010000    0.012081    0.013884    0.000000    0.000000    0.000000
    0.000000    0.000000    0.000000    0.014583    0.014955    0.015171
    0.015620    0.015992    0.017376    0.018790    0.019053    0.021593
 Highest eigenvalues
    0.223018    0.254687    0.277019    0.326513    0.381869    0.415691


........................................................................
.............................. CYCLE    1 ..............................
........................................................................
   1    -10.4775959 -0.104776E+02  0.119E-04    0.14       0.0  T
   2    -10.4775959  0.326105E-07  0.161E-03    0.14      18.7  T
   3    -10.4775959 -0.240495E-07  0.863E-04    0.14      34.9  T
   4    -10.4775959 -0.217426E-08  0.756E-04    0.14      39.9  T
     SCC iter.                  ...        0 min,  0.000 sec
     gradient                   ...        0 min,  0.001 sec
 * total energy  :   -10.3922058 Eh     change        0.4858938E-08 Eh
   gradient norm :     0.2733915 Eh/α   predicted     0.0000000E+00 (-100.00%)
   displ. norm   :     0.7377979 α      lambda       -0.1926076E+00
   maximum displ.:     0.3725938 α      in ANC's #24, #19, #14, ...

........................................................................
.............................. CYCLE    2 ..............................
........................................................................
   1    -10.5935042 -0.105935E+02  0.232E+00    0.17       0.0  T
   2     -6.5314583  0.406205E+01  0.108E+01    0.16       1.0  T
   3    -10.1805258 -0.364907E+01  0.461E+00    0.64       1.0  T
   4    -10.2567670 -0.762412E-01  0.416E+00    0.59       1.0  T
   5    -10.1897780  0.669890E-01  0.437E+00    0.72       1.0  T
   6    -10.3955065 -0.205729E+00  0.301E+00    0.52       1.0  T
   7    -10.4840897 -0.885832E-01  0.246E+00    0.28       1.0  T
   8    -10.4580619  0.260279E-01  0.245E+00    0.41       1.0  T
   9    -10.4964804 -0.384186E-01  0.215E+00    0.28       1.0  T
  10    -10.5455965 -0.491161E-01  0.166E+00    0.20       1.0  T
  11    -10.6282203 -0.826237E-01  0.122E+00    0.12       1.0  T
  12    -10.6287008 -0.480558E-03  0.124E+00    0.12       1.0  T
  13    -10.6186913  0.100096E-01  0.265E+00    0.14       1.0  T
  14    -10.6146053  0.408601E-02  0.281E+00    0.15       1.0  T
  15    -10.6069891  0.761619E-02  0.303E+00    0.15       1.0  T
  16    -10.6016531  0.533595E-02  0.316E+00    0.15       1.0  T
  17    -10.6016475  0.562027E-05  0.316E+00    0.15       1.0  T
  18    -10.5963672  0.528032E-02  0.329E+00    0.15       1.0  T
  19    -10.5978894 -0.152225E-02  0.326E+00    0.14       1.0  T
  20    -10.5887296  0.915982E-02  0.349E+00    0.13       1.0  T
  21    -10.5884677  0.261883E-03  0.348E+00    0.14       1.0  T
  22    -10.5918794 -0.341164E-02  0.333E+00    0.14       1.0  T
  23    -10.6025958 -0.107164E-01  0.292E+00    0.18       1.0  T
  24    -10.6053045 -0.270875E-02  0.272E+00    0.22       1.0  T
  25    -10.6024662  0.283837E-02  0.275E+00    0.27       1.0  T
  26    -10.5977553  0.471083E-02  0.255E+00    0.32       1.0  T
  27    -10.6124818 -0.147265E-01  0.219E+00    0.24       1.0  T
  28    -10.6080943  0.438748E-02  0.221E+00    0.28       1.0  T
  29    -10.6144732 -0.637885E-02  0.195E+00    0.25       1.0  T
  30    -10.6163557 -0.188257E-02  0.168E+00    0.26       1.0  T
  31    -10.6221043 -0.574855E-02  0.140E+00    0.24       1.0  T
  32    -10.6258062 -0.370190E-02  0.121E+00    0.22       1.0  T
  33    -10.6279656 -0.215938E-02  0.110E+00    0.20       1.0  T
  34    -10.6321202 -0.415463E-02  0.816E-01    0.18       1.0  T
  35    -10.6354218 -0.330165E-02  0.273E-01    0.15       1.0  T
  36    -10.6358701 -0.448249E-03  0.217E-01    0.14       1.0  T
  37    -10.6358243  0.458007E-04  0.195E-01    0.14       1.0  T
  38    -10.6360566 -0.232333E-03  0.108E-01    0.12       1.0  T
  39    -10.6360092  0.474046E-04  0.172E-01    0.12       1.0  T
  40    -10.6360026  0.656088E-05  0.174E-01    0.12       1.0  T
  41    -10.6360890 -0.863498E-04  0.129E-01    0.12       1.0  T
  42    -10.6360839  0.512458E-05  0.551E-02    0.13       1.0  T
  43    -10.6360857 -0.178503E-05  0.309E-02    0.13       1.0  T
  44    -10.6360892 -0.349778E-05  0.176E-02    0.13       1.7  T
  45    -10.6360922 -0.299898E-05  0.801E-03    0.13       3.8  T
  46    -10.6360928 -0.625351E-06  0.114E-03    0.13      26.5  T
  47    -10.6360928  0.606236E-08  0.113E-03    0.13      26.7  T
  48    -10.6360928 -0.760832E-08  0.221E-04    0.13     136.5  T
  49    -10.6360928 -0.413433E-09  0.548E-05    0.13     550.6  T
     SCC iter.                  ...        0 min,  0.008 sec
     gradient                   ...        0 min,  0.000 sec
 * total energy  :   -10.5667518 Eh     change       -0.1745460E+00 Eh
   gradient norm :     0.2499540 Eh/α   predicted    -0.1487263E+00 ( -14.79%)
   displ. norm   :     0.9501563 α      lambda       -0.2355788E+00
   maximum displ.:     0.6671482 α      in ANC's #24, #21, #19, ...

........................................................................
.............................. CYCLE    3 ..............................
........................................................................
   1    -10.4756733 -0.104757E+02  0.568E+00    0.59       0.0  T
   2     -9.3425633  0.113311E+01  0.129E+01    1.62       1.0  T
   3    -10.0918159 -0.749253E+00  0.709E+00    1.83       1.0  T
   4     -9.9794684  0.112348E+00  0.855E+00    0.81       1.0  T
   5    -10.5277856 -0.548317E+00  0.495E+00    0.86       1.0  T
   6    -10.8955508 -0.367765E+00  0.190E+00    0.24       1.0  T
   7    -10.5925913  0.302960E+00  0.484E+00    0.41       1.0  T
   8    -10.6254542 -0.328630E-01  0.455E+00    0.33       1.0  T
   9    -10.7012235 -0.757692E-01  0.408E+00    0.28       1.0  T
  10    -10.8994786 -0.198255E+00  0.125E+00    0.32       1.0  T
  11    -10.8662473  0.332313E-01  0.181E+00    0.54       1.0  T
  12    -10.8621836  0.406370E-02  0.187E+00    0.55       1.0  T
  13    -10.8692109 -0.702727E-02  0.174E+00    0.50       1.0  T
  14    -10.8644815  0.472936E-02  0.169E+00    0.49       1.0  T
  15    -10.8679351 -0.345358E-02  0.165E+00    0.47       1.0  T
  16    -10.8997457 -0.318106E-01  0.688E-01    0.30       1.0  T
  17    -10.8927539  0.699181E-02  0.955E-01    0.34       1.0  T
  18    -10.9027363 -0.998238E-02  0.500E-01    0.30       1.0  T
  19    -10.9037743 -0.103799E-02  0.426E-01    0.29       1.0  T
  20    -10.9039510 -0.176696E-03  0.403E-01    0.29       1.0  T
  21    -10.9045206 -0.569616E-03  0.351E-01    0.29       1.0  T
  22    -10.9058334 -0.131273E-02  0.233E-01    0.28       1.0  T
  23    -10.9063496 -0.516272E-03  0.137E-01    0.28       1.0  T
  24    -10.9064563 -0.106673E-03  0.106E-01    0.28       1.0  T
  25    -10.9065735 -0.117234E-03  0.626E-02    0.27       1.0  T
  26    -10.9065964 -0.228614E-04  0.510E-02    0.27       1.0  T
  27    -10.9066202 -0.238544E-04  0.359E-02    0.27       1.0  T
  28    -10.9066367 -0.164423E-04  0.195E-02    0.27       1.5  T
  29    -10.9066430 -0.630685E-05  0.461E-03    0.27       6.5  T
  30    -10.9066433 -0.319485E-06  0.513E-04    0.27      58.8  T
  31    -10.9066433 -0.166653E-08  0.245E-04    0.27     123.2  T
     SCC iter.                  ...        0 min,  0.005 sec
     gradient                   ...        0 min,  0.000 sec
 * total energy  :   -10.6970055 Eh     change       -0.1302538E+00 Eh
   gradient norm :     0.2256570 Eh/α   predicted    -0.2241293E+00 (  72.07%)
   displ. norm   :     0.6569023 α      lambda       -0.1132466E+00
   maximum displ.:     0.3996588 α      in ANC's #16, #17, #21, ...

........................................................................
.............................. CYCLE    4 ..............................
........................................................................
   1    -10.8675747 -0.108676E+02  0.224E+00    0.15       0.0  T
   2    -10.5309179  0.336657E+00  0.498E+00    0.97       1.0  T
   3    -10.6896380 -0.158720E+00  0.374E+00    0.18       1.0  T
   4    -10.8533414 -0.163703E+00  0.192E+00    0.44       1.0  T
   5    -10.7727298  0.806115E-01  0.254E+00    0.67       1.0  T
   6    -10.8392755 -0.665457E-01  0.191E+00    0.49       1.0  T
   7    -10.8500946 -0.108190E-01  0.156E+00    0.42       1.0  T
   8    -10.8594656 -0.937100E-02  0.140E+00    0.36       1.0  T
   9    -10.8625740 -0.310847E-02  0.129E+00    0.34       1.0  T
  10    -10.8648782 -0.230416E-02  0.121E+00    0.32       1.0  T
  11    -10.8717260 -0.684785E-02  0.880E-01    0.27       1.0  T
  12    -10.8720615 -0.335469E-03  0.853E-01    0.27       1.0  T
  13    -10.8772721 -0.521061E-02  0.214E-01    0.23       1.0  T
  14    -10.8769113  0.360805E-03  0.339E-01    0.23       1.0  T
  15    -10.8768793  0.320337E-04  0.319E-01    0.23       1.0  T
  16    -10.8775499 -0.670587E-03  0.663E-02    0.22       1.0  T
  17    -10.8773051  0.244781E-03  0.175E-01    0.22       1.0  T
  18    -10.8775532 -0.248081E-03  0.514E-02    0.22       1.0  T
  19    -10.8774719  0.812982E-04  0.120E-01    0.23       1.0  T
  20    -10.8774863 -0.144059E-04  0.108E-01    0.23       1.0  T
  21    -10.8775821 -0.958599E-04  0.262E-02    0.22       1.2  T
  22    -10.8775830 -0.908790E-06  0.155E-02    0.22       1.9  T
  23    -10.8775844 -0.130823E-05  0.320E-03    0.22       9.4  T
  24    -10.8775844 -0.871673E-07  0.312E-04    0.22      96.7  T
  25    -10.8775844 -0.509338E-09  0.133E-04    0.22     226.3  T
     SCC iter.                  ...        0 min,  0.004 sec
     gradient                   ...        0 min,  0.000 sec
 * total energy  :   -10.7439556 Eh     change       -0.4695006E-01 Eh
   gradient norm :     0.1283999 Eh/α   predicted    -0.8105744E-01 (  72.65%)
   displ. norm   :     0.7250903 α      lambda       -0.6208286E-01
   maximum displ.:     0.4257738 α      in ANC's #16, #17, #14, ...

........................................................................
.............................. CYCLE    5 ..............................
........................................................................
   1    -10.8122018 -0.108122E+02  0.621E+00    0.12       0.0  T
   2      4.5497407  0.153619E+02  0.169E+01    0.54       1.0  T
   3    -10.5483636 -0.150981E+02  0.461E+00    0.41       1.0  T
   4    -10.4229845  0.125379E+00  0.591E+00    0.33       1.0  T
   5    -10.8534276 -0.430443E+00  0.388E+00    0.17       1.0  T
   6    -10.8930351 -0.396075E-01  0.275E+00    0.15       1.0  T
   7    -10.8021906  0.908445E-01  0.221E+00    0.28       1.0  T
   8    -10.7867864  0.154042E-01  0.212E+00    0.33       1.0  T
   9    -10.8060173 -0.192309E-01  0.213E+00    0.29       1.0  T
  10    -10.8151411 -0.912379E-02  0.209E+00    0.28       1.0  T
  11    -10.8492148 -0.340737E-01  0.185E+00    0.25       1.0  T
  12    -10.8489281  0.286663E-03  0.183E+00    0.26       1.0  T
  13    -10.8848858 -0.359577E-01  0.177E+00    0.29       1.0  T
  14    -10.8855942 -0.708339E-03  0.178E+00    0.29       1.0  T
  15    -10.8890347 -0.344055E-02  0.180E+00    0.32       1.0  T
  16    -10.8918163 -0.278156E-02  0.187E+00    0.35       1.0  T
  17    -10.8943747 -0.255841E-02  0.180E+00    0.36       1.0  T
  18    -10.8963311 -0.195643E-02  0.174E+00    0.36       1.0  T
  19    -10.8997942 -0.346302E-02  0.135E+00    0.36       1.0  T
  20    -10.9024175 -0.262336E-02  0.121E+00    0.39       1.0  T
  21    -10.9026313 -0.213732E-03  0.121E+00    0.39       1.0  T
  22    -10.9027102 -0.789903E-04  0.121E+00    0.39       1.0  T
  23    -10.9046731 -0.196282E-02  0.809E-01    0.39       1.0  T
  24    -10.9046259  0.471938E-04  0.685E-01    0.39       1.0  T
  25    -10.9049046 -0.278699E-03  0.413E-01    0.40       1.0  T
  26    -10.9049133 -0.872243E-05  0.368E-01    0.39       1.0  T
  27    -10.9049397 -0.264052E-04  0.222E-01    0.39       1.0  T
  28    -10.9049445 -0.479376E-05  0.154E-01    0.39       1.0  T
  29    -10.9049495 -0.497224E-05  0.730E-02    0.39       1.0  T
  30    -10.9049514 -0.189546E-05  0.355E-02    0.39       1.0  T
  31    -10.9049520 -0.640022E-06  0.142E-02    0.39       2.1  T
  32    -10.9049520 -0.334670E-07  0.626E-03    0.39       4.8  T
  33    -10.9049520 -0.939349E-08  0.190E-03    0.39      15.9  T
  34    -10.9049520 -0.394699E-08  0.510E-04    0.39      59.1  T
  35    -10.9049520  0.102975E-10  0.475E-04    0.39      63.5  T
     SCC iter.                  ...        0 min,  0.010 sec
     gradient                   ...        0 min,  0.001 sec
 * total energy  :   -10.7769488 Eh     change       -0.3299325E-01 Eh
   gradient norm :     0.1367879 Eh/α   predicted    -0.4736167E-01 (  43.55%)
   displ. norm   :     0.6848326 α      lambda       -0.5905526E-01
   maximum displ.:     0.3022933 α      in ANC's #16, #14, #17, ...

........................................................................
.............................. CYCLE    6 ..............................
........................................................................
   1    -10.9824531 -0.109825E+02  0.377E+00    0.75       0.0  T
   2    -10.6852739  0.297179E+00  0.426E+00    0.70       1.0  T
   3    -10.6296306  0.556433E-01  0.499E+00    0.69       1.0  T
   4    -10.9342477 -0.304617E+00  0.290E+00    0.76       1.0  T
   5    -10.9531655 -0.189178E-01  0.195E+00    0.65       1.0  T
   6    -10.9850222 -0.318567E-01  0.143E+00    0.67       1.0  T
   7    -10.9879566 -0.293434E-02  0.136E+00    0.67       1.0  T
   8    -10.9964806 -0.852402E-02  0.104E+00    0.68       1.0  T
   9    -11.0011128 -0.463221E-02  0.711E-01    0.69       1.0  T
  10    -11.0028458 -0.173302E-02  0.606E-01    0.69       1.0  T
  11    -11.0035332 -0.687383E-03  0.475E-01    0.68       1.0  T
  12    -11.0060936 -0.256035E-02  0.137E-01    0.67       1.0  T
  13    -11.0061027 -0.917582E-05  0.126E-01    0.67       1.0  T
  14    -11.0061064 -0.363099E-05  0.463E-02    0.67       1.0  T
  15    -11.0061255 -0.190955E-04  0.175E-02    0.67       1.7  T
  16    -11.0061264 -0.914450E-06  0.125E-02    0.67       2.4  T
  17    -11.0061269 -0.546419E-06  0.800E-03    0.67       3.8  T
  18    -11.0061273 -0.413262E-06  0.170E-03    0.67      17.8  T
  19    -11.0061273 -0.116358E-07  0.540E-04    0.67      55.9  T
  20    -11.0061273 -0.185964E-08  0.159E-04    0.67     189.6  T
     SCC iter.                  ...        0 min,  0.004 sec
     gradient                   ...        0 min,  0.001 sec
 * total energy  :   -10.8131829 Eh     change       -0.3623410E-01 Eh
   gradient norm :     0.0890006 Eh/α   predicted    -0.4337596E-01 (  19.71%)
   displ. norm   :     0.7366660 α      lambda       -0.5659775E-01
   maximum displ.:     0.3710302 α      in ANC's #15, #12, #9, ...

........................................................................
.............................. CYCLE    7 ..............................
........................................................................
   1    -10.9754308 -0.109754E+02  0.323E+00    0.86       0.0  T
   2    -10.1963202  0.779111E+00  0.625E+00    1.53       1.0  T
   3    -10.8943779 -0.698058E+00  0.290E+00    0.75       1.0  T
   4    -10.7744472  0.119931E+00  0.364E+00    1.08       1.0  T
   5    -11.0284115 -0.253964E+00  0.107E+00    0.77       1.0  T
   6    -11.0403348 -0.119233E-01  0.681E-01    0.77       1.0  T
   7    -11.0367537  0.358114E-02  0.749E-01    0.78       1.0  T
   8    -11.0390035 -0.224978E-02  0.488E-01    0.76       1.0  T
   9    -11.0423724 -0.336890E-02  0.228E-01    0.76       1.0  T
  10    -11.0428717 -0.499386E-03  0.146E-01    0.75       1.0  T
  11    -11.0432172 -0.345432E-03  0.644E-02    0.75       1.0  T
  12    -11.0432344 -0.172188E-04  0.153E-02    0.75       2.0  T
  13    -11.0432345 -0.139768E-06  0.916E-03    0.75       3.3  T
  14    -11.0432357 -0.111739E-05  0.358E-03    0.75       8.4  T
  15    -11.0432356  0.567964E-07  0.271E-03    0.75      11.1  T
  16    -11.0432357 -0.764620E-07  0.184E-03    0.75      16.4  T
  17    -11.0432357 -0.495194E-07  0.420E-04    0.75      71.7  T
  18    -11.0432357 -0.209386E-08  0.755E-05    0.75     399.5  T
     SCC iter.                  ...        0 min,  0.004 sec
     gradient                   ...        0 min,  0.001 sec
 * total energy  :   -10.8218256 Eh     change       -0.8642678E-02 Eh
   gradient norm :     0.1875719 Eh/α   predicted    -0.4365599E-01 ( 405.12%)
   displ. norm   :     0.5597382 α      lambda       -0.5758881E-01
   maximum displ.:     0.2836009 α      in ANC's #15, #16, #14, ...

........................................................................
.............................. CYCLE    8 ..............................
........................................................................
   1    -11.0210023 -0.110210E+02  0.249E+00    1.19       0.0  T
   2     -9.4564805  0.156452E+01  0.738E+00    0.51       1.0  T
   3    -10.7228587 -0.126638E+01  0.374E+00    1.79       1.0  T
   4    -10.9419733 -0.219115E+00  0.242E+00    1.46       1.0  T
   5    -10.9337996  0.817366E-02  0.232E+00    1.30       1.0  T
   6    -10.9791236 -0.453240E-01  0.163E+00    1.36       1.0  T
   7    -11.0063488 -0.272252E-01  0.130E+00    1.27       1.0  T
   8    -11.0199576 -0.136089E-01  0.108E+00    1.22       1.0  T
   9    -11.0298460 -0.988842E-02  0.862E-01    1.19       1.0  T
  10    -11.0318402 -0.199413E-02  0.796E-01    1.18       1.0  T
  11    -11.0430312 -0.111910E-01  0.414E-01    1.11       1.0  T
  12    -11.0436984 -0.667203E-03  0.360E-01    1.11       1.0  T
  13    -11.0461138 -0.241545E-02  0.521E-02    1.07       1.0  T
  14    -11.0461010  0.128198E-04  0.459E-02    1.07       1.0  T
  15    -11.0461323 -0.312782E-04  0.933E-03    1.07       3.2  T
  16    -11.0461320  0.260837E-06  0.887E-03    1.07       3.4  T
  17    -11.0461323 -0.260812E-06  0.444E-03    1.07       6.8  T
  18    -11.0461323 -0.527811E-07  0.257E-03    1.07      11.7  T
  19    -11.0461324 -0.397292E-07  0.115E-03    1.07      26.2  T
  20    -11.0461324 -0.542694E-08  0.222E-04    1.07     135.9  T
  21    -11.0461324 -0.288802E-09  0.363E-05    1.07     830.6  T
     SCC iter.                  ...        0 min,  0.049 sec
     gradient                   ...        0 min,  0.004 sec
 * total energy  :   -10.8393543 Eh     change       -0.1752866E-01 Eh
   gradient norm :     0.0941968 Eh/α   predicted    -0.3781588E-01 ( 115.74%)
   displ. norm   :     0.6307439 α      lambda       -0.3356402E-01
   maximum displ.:     0.2716535 α      in ANC's #15, #11, #12, ...

........................................................................
.............................. CYCLE    9 ..............................
........................................................................
   1    -11.0362665 -0.110363E+02  0.308E+00    0.85       0.0  T
   2     -8.4709410  0.256533E+01  0.110E+01    0.13       1.0  T
   3     -9.2376598 -0.766719E+00  0.946E+00    0.05       1.0  T
   4     -7.1114224  0.212624E+01  0.116E+01    0.15       1.0  T
   5    -10.5185446 -0.340712E+01  0.549E+00    0.24       1.0  T
   6    -11.0091923 -0.490648E+00  0.288E+00    0.71       1.0  T
   7    -10.9705320  0.386603E-01  0.307E+00    0.79       1.0  T
   8    -11.0327445 -0.622125E-01  0.224E+00    0.85       1.0  T
   9    -11.0534057 -0.206612E-01  0.288E+00    1.00       1.0  T
  10    -11.0557034 -0.229769E-02  0.246E+00    0.94       1.0  T
  11    -11.0546929  0.101051E-02  0.290E+00    1.00       1.0  T
  12    -11.0542210  0.471921E-03  0.295E+00    1.00       1.0  T
  13    -11.0522107  0.201024E-02  0.285E+00    0.96       1.0  T
  14    -11.0359475  0.162633E-01  0.265E+00    0.92       1.0  T
  15    -11.0356886  0.258871E-03  0.263E+00    0.92       1.0  T
  16    -11.0478351 -0.121465E-01  0.280E+00    0.94       1.0  T
  17    -11.0537640 -0.592884E-02  0.231E+00    0.92       1.0  T
  18    -11.0540408 -0.276799E-03  0.229E+00    0.92       1.0  T
  19    -11.0542385 -0.197733E-03  0.228E+00    0.92       1.0  T
  20    -11.0542919 -0.534528E-04  0.228E+00    0.92       1.0  T
  21    -11.0547403 -0.448355E-03  0.225E+00    0.92       1.0  T
  22    -11.0556530 -0.912657E-03  0.212E+00    0.92       1.0  T
  23    -11.0601431 -0.449014E-02  0.124E+00    0.88       1.0  T
  24    -11.0625479 -0.240476E-02  0.712E-01    0.85       1.0  T
  25    -11.0631584 -0.610527E-03  0.544E-01    0.84       1.0  T
  26    -11.0634518 -0.293417E-03  0.342E-01    0.83       1.0  T
  27    -11.0635374 -0.856219E-04  0.608E-02    0.83       1.0  T
  28    -11.0635377 -0.260922E-06  0.345E-02    0.83       1.0  T
  29    -11.0635391 -0.144431E-05  0.173E-02    0.83       1.7  T
  30    -11.0635393 -0.122947E-06  0.874E-03    0.83       3.4  T
  31    -11.0635393 -0.547658E-07  0.217E-03    0.83      13.9  T
  32    -11.0635393 -0.769450E-09  0.816E-04    0.83      36.9  T
  33    -11.0635393  0.176863E-08  0.406E-04    0.83      74.4  T
     SCC iter.                  ...        0 min,  0.015 sec
     gradient                   ...        0 min,  0.001 sec
 * total energy  :   -10.8525135 Eh     change       -0.1315918E-01 Eh
   gradient norm :     0.0940252 Eh/α   predicted    -0.2345853E-01 (  78.27%)
   displ. norm   :     0.6089028 α      lambda       -0.2993868E-01
   maximum displ.:     0.2694609 α      in ANC's #12, #16, #11, ...

........................................................................
.............................. CYCLE   10 ..............................
........................................................................
   1    -11.0507801 -0.110508E+02  0.235E+00    0.98       0.0  T
   2    -10.4719261  0.578854E+00  0.507E+00    0.65       1.0  T
   3    -10.8501172 -0.378191E+00  0.318E+00    1.25       1.0  T
   4    -11.0238137 -0.173696E+00  0.154E+00    0.91       1.0  T
   5    -10.9896041  0.342096E-01  0.187E+00    1.11       1.0  T
   6    -11.0392421 -0.496380E-01  0.104E+00    1.01       1.0  T
   7    -11.0435262 -0.428409E-02  0.935E-01    1.01       1.0  T
   8    -11.0467178 -0.319156E-02  0.801E-01    0.99       1.0  T
   9    -11.0518827 -0.516490E-02  0.551E-01    0.99       1.0  T
  10    -11.0540685 -0.218585E-02  0.443E-01    0.98       1.0  T
  11    -11.0542470 -0.178531E-03  0.418E-01    0.98       1.0  T
  12    -11.0565351 -0.228806E-02  0.149E-01    0.96       1.0  T
  13    -11.0565459 -0.108321E-04  0.140E-01    0.96       1.0  T
  14    -11.0568271 -0.281207E-03  0.267E-02    0.95       1.1  T
  15    -11.0568302 -0.308254E-05  0.178E-02    0.95       1.7  T
  16    -11.0568333 -0.308727E-05  0.754E-03    0.95       4.0  T
  17    -11.0568343 -0.100946E-05  0.148E-03    0.95      20.4  T
  18    -11.0568343 -0.454469E-08  0.697E-04    0.95      43.2  T
  19    -11.0568343  0.782287E-08  0.856E-04    0.95      35.2  T
     SCC iter.                  ...        0 min,  0.005 sec
     gradient                   ...        0 min,  0.001 sec
 * total energy  :   -10.8671931 Eh     change       -0.1467966E-01 Eh
   gradient norm :     0.0609126 Eh/α   predicted    -0.2051941E-01 (  39.78%)
   displ. norm   :     0.4272036 α      lambda       -0.1477527E-01
   maximum displ.:     0.1820378 α      in ANC's #6, #27, #24, ...

........................................................................
.............................. CYCLE   11 ..............................
........................................................................
   1    -11.0428732 -0.110429E+02  0.245E+00    0.98       0.0  T
   2    -10.4728862  0.569987E+00  0.521E+00    1.55       1.0  T
   3    -11.0946074 -0.621721E+00  0.141E+00    1.03       1.0  T
   4    -11.0889942  0.561327E-02  0.124E+00    1.13       1.0  T
   5    -11.1158913 -0.268971E-01  0.473E-01    1.01       1.0  T
   6    -11.1140643  0.182697E-02  0.508E-01    1.08       1.0  T
   7    -11.1155073 -0.144295E-02  0.474E-01    1.04       1.0  T
   8    -11.1149515  0.555704E-03  0.489E-01    1.04       1.0  T
   9    -11.1159147 -0.963152E-03  0.348E-01    1.04       1.0  T
  10    -11.1162459 -0.331179E-03  0.366E-01    1.05       1.0  T
  11    -11.1166378 -0.391923E-03  0.293E-01    1.05       1.0  T
  12    -11.1173677 -0.729898E-03  0.179E-01    1.04       1.0  T
  13    -11.1177899 -0.422154E-03  0.136E-02    1.05       2.2  T
  14    -11.1177897  0.147730E-06  0.123E-02    1.05       2.4  T
  15    -11.1177906 -0.921649E-06  0.615E-03    1.05       4.9  T
  16    -11.1177909 -0.272386E-06  0.457E-03    1.05       6.6  T
  17    -11.1177911 -0.239644E-06  0.189E-03    1.05      16.0  T
  18    -11.1177912 -0.404593E-07  0.762E-04    1.05      39.6  T
  19    -11.1177912 -0.745190E-08  0.238E-05    1.05    1267.0  T
     SCC iter.                  ...        0 min,  0.003 sec
     gradient                   ...        0 min,  0.001 sec
 * total energy  :   -10.8723312 Eh     change       -0.5138060E-02 Eh
   gradient norm :     0.0692949 Eh/α   predicted    -0.8735906E-02 (  70.02%)
   displ. norm   :     0.5711838 α      lambda       -0.1398683E-01
   maximum displ.:     0.2923733 α      in ANC's #9, #6, #7, ...

........................................................................
.............................. CYCLE   12 ..............................
........................................................................
   1    -11.0706265 -0.110706E+02  0.239E+00    1.04       0.0  T
   2    -10.6323446  0.438282E+00  0.453E+00    1.68       1.0  T
   3    -10.7570939 -0.124749E+00  0.380E+00    0.57       1.0  T
   4    -11.0165878 -0.259494E+00  0.231E+00    1.46       1.0  T
   5    -10.9925168  0.240710E-01  0.255E+00    1.43       1.0  T
   6    -11.0418563 -0.493395E-01  0.197E+00    1.37       1.0  T
   7    -11.0749670 -0.331107E-01  0.132E+00    1.37       1.0  T
   8    -11.1081048 -0.331378E-01  0.492E-01    1.29       1.0  T
   9    -11.1093657 -0.126094E-02  0.381E-01    1.27       1.0  T
  10    -11.0976248  0.117409E-01  0.940E-01    1.30       1.0  T
  11    -11.0959156  0.170921E-02  0.104E+00    1.30       1.0  T
  12    -11.1089938 -0.130781E-01  0.393E-01    1.27       1.0  T
  13    -11.1116309 -0.263715E-02  0.109E-01    1.25       1.0  T
  14    -11.1117253 -0.944264E-04  0.742E-02    1.25       1.0  T
  15    -11.1115396  0.185755E-03  0.132E-01    1.25       1.0  T
  16    -11.1116193 -0.797131E-04  0.114E-01    1.25       1.0  T
  17    -11.1117774 -0.158057E-03  0.196E-02    1.25       1.5  T
  18    -11.1117818 -0.442705E-05  0.458E-03    1.25       6.6  T
  19    -11.1117820 -0.187125E-06  0.137E-03    1.24      22.0  T
  20    -11.1117820 -0.627434E-08  0.812E-04    1.24      37.1  T
  21    -11.1117820  0.246430E-09  0.662E-04    1.24      45.5  T
     SCC iter.                  ...        0 min,  0.005 sec
     gradient                   ...        0 min,  0.001 sec
 * total energy  :   -10.8806426 Eh     change       -0.8311438E-02 Eh
   gradient norm :     0.0342149 Eh/α   predicted    -0.9275033E-02 (  11.59%)
   displ. norm   :     0.6811244 α      lambda       -0.1233207E-01
   maximum displ.:     0.3448527 α      in ANC's #9, #6, #11, ...

........................................................................
.............................. CYCLE   13 ..............................
........................................................................
   1    -11.0875806 -0.110876E+02  0.204E+00    1.07       0.0  T
   2    -10.9482025  0.139378E+00  0.321E+00    1.09       1.0  T
   3    -10.9921974 -0.439949E-01  0.227E+00    0.45       1.0  T
   4    -10.9588575  0.333399E-01  0.249E+00    1.82       1.0  T
   5    -11.0817071 -0.122850E+00  0.949E-01    1.14       1.0  T
   6    -11.0878818 -0.617467E-02  0.826E-01    1.19       1.0  T
   7    -11.0918205 -0.393872E-02  0.680E-01    1.09       1.0  T
   8    -11.0913955  0.425023E-03  0.607E-01    1.06       1.0  T
   9    -11.0918918 -0.496299E-03  0.518E-01    1.07       1.0  T
  10    -11.0935129 -0.162107E-02  0.306E-01    1.11       1.0  T
  11    -11.0945480 -0.103517E-02  0.135E-01    1.17       1.0  T
  12    -11.0945606 -0.125452E-04  0.866E-02    1.16       1.0  T
  13    -11.0946118 -0.511888E-04  0.620E-02    1.17       1.0  T
  14    -11.0946689 -0.571338E-04  0.178E-02    1.18       1.7  T
  15    -11.0946694 -0.448072E-06  0.911E-03    1.18       3.3  T
  16    -11.0946698 -0.439852E-06  0.268E-03    1.18      11.3  T
  17    -11.0946698 -0.428906E-07  0.126E-03    1.18      24.0  T
  18    -11.0946698 -0.127925E-07  0.168E-04    1.18     179.5  T
  19    -11.0946698 -0.135154E-09  0.116E-04    1.18     260.8  T
     SCC iter.                  ...        0 min,  0.005 sec
     gradient                   ...        0 min,  0.001 sec
 * total energy  :   -10.8802510 Eh     change        0.3916204E-03 Eh
   gradient norm :     0.0626888 Eh/α   predicted    -0.9026642E-02 (*******%)
   displ. norm   :     0.3236132 α      lambda       -0.1279643E-01
   maximum displ.:     0.1771289 α      in ANC's #14, #5, #15, ...

........................................................................
.............................. CYCLE   14 ..............................
........................................................................
   1    -11.1210991 -0.111211E+02  0.107E+00    1.28       0.0  T
   2    -11.0723698  0.487294E-01  0.194E+00    1.40       1.0  T
   3    -11.1118547 -0.394850E-01  0.717E-01    1.08       1.0  T
   4    -11.0345976  0.772572E-01  0.209E+00    1.85       1.0  T
   5    -11.1174311 -0.828335E-01  0.585E-01    1.44       1.0  T
   6    -11.1220353 -0.460420E-02  0.219E-01    1.27       1.0  T
   7    -11.1218487  0.186526E-03  0.222E-01    1.26       1.0  T
   8    -11.1218373  0.114778E-04  0.196E-01    1.26       1.0  T
   9    -11.1223535 -0.516214E-03  0.100E-01    1.28       1.0  T
  10    -11.1223548 -0.131633E-05  0.965E-02    1.28       1.0  T
  11    -11.1224009 -0.461268E-04  0.573E-02    1.29       1.0  T
  12    -11.1224353 -0.343617E-04  0.236E-02    1.29       1.3  T
  13    -11.1224416 -0.627753E-05  0.995E-03    1.30       3.0  T
  14    -11.1224427 -0.119738E-05  0.100E-03    1.30      30.0  T
  15    -11.1224428 -0.397102E-08  0.585E-04    1.30      51.5  T
  16    -11.1224428 -0.424826E-08  0.227E-04    1.30     132.6  T
     SCC iter.                  ...        0 min,  0.002 sec
     gradient                   ...        0 min,  0.000 sec
 * total energy  :   -10.8856881 Eh     change       -0.5437084E-02 Eh
   gradient norm :     0.0876447 Eh/α   predicted    -0.7068269E-02 (  30.00%)
   displ. norm   :     0.4706746 α      lambda       -0.1670990E-01
   maximum displ.:     0.1879080 α      in ANC's #13, #4, #7, ...

........................................................................
.............................. CYCLE   15 ..............................
........................................................................
   1    -11.0986021 -0.110986E+02  0.185E+00    1.04       0.0  T
   2    -10.5912877  0.507314E+00  0.507E+00    2.09       1.0  T
   3    -11.1087292 -0.517441E+00  0.124E+00    1.24       1.0  T
   4    -11.0715921  0.371371E-01  0.202E+00    1.12       1.0  T
   5    -11.1102581 -0.386659E-01  0.993E-01    1.08       1.0  T
   6    -11.1285204 -0.182623E-01  0.376E-01    1.21       1.0  T
   7    -11.1293864 -0.865999E-03  0.282E-01    1.22       1.0  T
   8    -11.1292666  0.119773E-03  0.279E-01    1.22       1.0  T
   9    -11.1297160 -0.449381E-03  0.168E-01    1.27       1.0  T
  10    -11.1299288 -0.212850E-03  0.115E-01    1.26       1.0  T
  11    -11.1300335 -0.104625E-03  0.742E-02    1.24       1.0  T
  12    -11.1299294  0.104040E-03  0.101E-01    1.26       1.0  T
  13    -11.1300942 -0.164781E-03  0.108E-02    1.25       2.8  T
  14    -11.1300926  0.164436E-05  0.149E-02    1.25       2.0  T
  15    -11.1300960 -0.342476E-05  0.101E-03    1.25      29.8  T
  16    -11.1300959  0.754128E-07  0.227E-03    1.25      13.3  T
  17    -11.1300960 -0.797515E-07  0.512E-04    1.25      58.9  T
  18    -11.1300960 -0.361903E-08  0.179E-04    1.25     168.6  T
     SCC iter.                  ...        0 min,  0.002 sec
     gradient                   ...        0 min,  0.001 sec
 * total energy  :   -10.8719772 Eh     change        0.1371089E-01 Eh
   gradient norm :     0.1776003 Eh/α   predicted    -0.1020585E-01 (-174.44%)
   displ. norm   :     0.2895048 α      lambda       -0.3250369E-01
   maximum displ.:     0.1199308 α      in ANC's #17, #12, #11, ...

........................................................................
.............................. CYCLE   16 ..............................
........................................................................
   1    -10.9928113 -0.109928E+02  0.302E+00    1.41       0.0  T
   2     -2.1110089  0.888180E+01  0.133E+01    1.25       1.0  T
   3    -10.7885880 -0.867758E+01  0.397E+00    0.98       1.0  T
   4    -10.8570357 -0.684477E-01  0.426E+00    0.61       1.0  T
   5    -11.0084856 -0.151450E+00  0.264E+00    0.83       1.0  T
   6    -11.1155066 -0.107021E+00  0.499E-01    1.25       1.0  T
   7    -11.1162799 -0.773321E-03  0.378E-01    1.28       1.0  T
   8    -11.1147131  0.156678E-02  0.500E-01    1.24       1.0  T
   9    -11.1165846 -0.187149E-02  0.254E-01    1.28       1.0  T
  10    -11.1155054  0.107920E-02  0.196E-01    1.30       1.0  T
  11    -11.1164963 -0.990936E-03  0.176E-01    1.29       1.0  T
  12    -11.1165273 -0.309225E-04  0.251E-01    1.27       1.0  T
  13    -11.1167147 -0.187437E-03  0.163E-01    1.28       1.0  T
  14    -11.1167389 -0.241519E-04  0.130E-01    1.28       1.0  T
  15    -11.1167423 -0.348674E-05  0.120E-01    1.28       1.0  T
  16    -11.1167529 -0.105239E-04  0.529E-02    1.28       1.0  T
  17    -11.1167503  0.261039E-05  0.263E-02    1.28       1.1  T
  18    -11.1167541 -0.385139E-05  0.120E-02    1.28       2.5  T
  19    -11.1167546 -0.499467E-06  0.164E-03    1.28      18.4  T
  20    -11.1167546 -0.202109E-07  0.484E-04    1.28      62.3  T
  21    -11.1167546 -0.313882E-09  0.572E-04    1.28      52.7  T
     SCC iter.                  ...        0 min,  0.004 sec
     gradient                   ...        0 min,  0.000 sec
 * total energy  :   -10.8896304 Eh     change       -0.1765320E-01 Eh
   gradient norm :     0.0294999 Eh/α   predicted    -0.1761397E-01 (  -0.22%)
   displ. norm   :     0.4342657 α      lambda       -0.6763618E-02
   maximum displ.:     0.1765017 α      in ANC's #5, #4, #7, ...

........................................................................
.............................. CYCLE   17 ..............................
........................................................................
   1    -11.1366886 -0.111367E+02  0.156E+00    1.18       0.0  T
   2    -11.0777910  0.588976E-01  0.178E+00    1.01       1.0  T
   3    -11.0104366  0.673544E-01  0.267E+00    1.91       1.0  T
   4    -11.1116496 -0.101213E+00  0.150E+00    1.16       1.0  T
   5    -11.1205097 -0.886012E-02  0.111E+00    1.41       1.0  T
   6    -11.1391079 -0.185982E-01  0.462E-01    1.27       1.0  T
   7    -11.1396183 -0.510376E-03  0.418E-01    1.26       1.0  T
   8    -11.1399518 -0.333503E-03  0.376E-01    1.25       1.0  T
   9    -11.1410470 -0.109515E-02  0.137E-01    1.28       1.0  T
  10    -11.1410766 -0.296507E-04  0.117E-01    1.28       1.0  T
  11    -11.1412578 -0.181156E-03  0.103E-02    1.26       2.9  T
  12    -11.1412573  0.500578E-06  0.978E-03    1.26       3.1  T
  13    -11.1412572  0.771139E-07  0.118E-02    1.26       2.5  T
  14    -11.1412587 -0.145635E-05  0.272E-03    1.26      11.1  T
  15    -11.1412588 -0.133332E-06  0.476E-04    1.26      63.4  T
  16    -11.1412588  0.263722E-08  0.596E-04    1.26      50.6  T
     SCC iter.                  ...        0 min,  0.002 sec
     gradient                   ...        0 min,  0.001 sec
 * total energy  :   -10.8861683 Eh     change        0.3462126E-02 Eh
   gradient norm :     0.0847302 Eh/α   predicted    -0.4019575E-02 (-216.10%)
   displ. norm   :     0.3037379 α      lambda       -0.1405514E-01
   maximum displ.:     0.1575740 α      in ANC's #9, #4, #6, ...

........................................................................
.............................. CYCLE   18 ..............................
........................................................................
   1    -11.1298682 -0.111299E+02  0.856E-01    1.26       0.0  T
   2    -11.0301647  0.997034E-01  0.251E+00    1.65       1.0  T
   3    -11.1264200 -0.962553E-01  0.815E-01    1.42       1.0  T
   4    -11.1102406  0.161794E-01  0.969E-01    1.13       1.0  T
   5    -11.1256725 -0.154319E-01  0.633E-01    1.39       1.0  T
   6    -11.1310320 -0.535944E-02  0.121E-01    1.33       1.0  T
   7    -11.1309761  0.558984E-04  0.117E-01    1.33       1.0  T
   8    -11.1311603 -0.184186E-03  0.517E-02    1.32       1.0  T
   9    -11.1311663 -0.608873E-05  0.296E-02    1.32       1.0  T
  10    -11.1311752 -0.882293E-05  0.179E-02    1.32       1.7  T
  11    -11.1311762 -0.104018E-05  0.134E-02    1.31       2.2  T
  12    -11.1311769 -0.678284E-06  0.105E-02    1.31       2.9  T
  13    -11.1311776 -0.663328E-06  0.705E-03    1.31       4.3  T
  14    -11.1311777 -0.187829E-06  0.551E-03    1.31       5.5  T
  15    -11.1311780 -0.278274E-06  0.132E-03    1.31      22.8  T
  16    -11.1311780 -0.136343E-07  0.474E-04    1.31      63.5  T
  17    -11.1311780 -0.156799E-08  0.182E-04    1.31     165.3  T
     SCC iter.                  ...        0 min,  0.002 sec
     gradient                   ...        0 min,  0.000 sec
 * total energy  :   -10.8927105 Eh     change       -0.6542245E-02 Eh
   gradient norm :     0.0417170 Eh/α   predicted    -0.7675911E-02 (  17.33%)
   displ. norm   :     0.3835001 α      lambda       -0.6893841E-02
   maximum displ.:     0.2140411 α      in ANC's #13, #2, #7, ...

........................................................................
.............................. CYCLE   19 ..............................
........................................................................
   1    -11.0323022 -0.110323E+02  0.305E+00    1.22       0.0  T
   2     -5.8735770  0.515873E+01  0.106E+01    0.88       1.0  T
   3    -10.7894817 -0.491590E+01  0.400E+00    1.63       1.0  T
   4    -11.0566596 -0.267178E+00  0.174E+00    1.31       1.0  T
   5    -11.0933270 -0.366674E-01  0.205E+00    1.16       1.0  T
   6    -11.1046981 -0.113710E-01  0.921E-01    1.29       1.0  T
   7    -11.1143605 -0.966247E-02  0.938E-01    1.23       1.0  T
   8    -11.1180374 -0.367688E-02  0.824E-01    1.20       1.0  T
   9    -11.1181297 -0.922685E-04  0.717E-01    1.16       1.0  T
  10    -11.1201277 -0.199799E-02  0.454E-01    1.18       1.0  T
  11    -11.1210791 -0.951418E-03  0.454E-01    1.24       1.0  T
  12    -11.1220711 -0.991985E-03  0.510E-02    1.22       1.0  T
  13    -11.1220665  0.457419E-05  0.349E-02    1.22       1.0  T
  14    -11.1220747 -0.816013E-05  0.263E-02    1.22       1.1  T
  15    -11.1220746  0.517660E-07  0.194E-02    1.22       1.6  T
  16    -11.1220765 -0.188501E-05  0.712E-03    1.22       4.2  T
  17    -11.1220767 -0.228512E-06  0.855E-04    1.22      35.3  T
  18    -11.1220767 -0.611237E-08  0.637E-04    1.22      47.3  T
     SCC iter.                  ...        0 min,  0.004 sec
     gradient                   ...        0 min,  0.001 sec
 * total energy  :   -10.8903851 Eh     change        0.2325421E-02 Eh
   gradient norm :     0.0520677 Eh/α   predicted    -0.3953869E-02 (-270.03%)
   displ. norm   :     0.2911970 α      lambda       -0.1049073E-01
   maximum displ.:     0.1620209 α      in ANC's #13, #15, #5, ...

........................................................................
.............................. CYCLE   20 ..............................
........................................................................
   1    -11.1136472 -0.111136E+02  0.878E-01    1.18       0.0  T
   2    -11.1103223  0.332490E-02  0.655E-01    1.18       1.0  T
   3    -10.9498808  0.160441E+00  0.315E+00    1.31       1.0  T
   4    -11.1049094 -0.155029E+00  0.784E-01    1.14       1.0  T
   5    -11.0851435  0.197660E-01  0.139E+00    1.30       1.0  T
   6    -11.0939987 -0.885522E-02  0.120E+00    1.26       1.0  T
   7    -11.0939300  0.687148E-04  0.118E+00    1.26       1.0  T
   8    -11.1136922 -0.197622E-01  0.260E-01    1.19       1.0  T
   9    -11.1118569  0.183526E-02  0.469E-01    1.17       1.0  T
  10    -11.1128969 -0.103993E-02  0.326E-01    1.17       1.0  T
  11    -11.1140319 -0.113503E-02  0.744E-02    1.19       1.0  T
  12    -11.1139340  0.979505E-04  0.141E-01    1.20       1.0  T
  13    -11.1140311 -0.971575E-04  0.741E-02    1.20       1.0  T
  14    -11.1140860 -0.548717E-04  0.708E-03    1.20       4.3  T
  15    -11.1140861 -0.764679E-07  0.488E-03    1.20       6.2  T
  16    -11.1140863 -0.278051E-06  0.211E-03    1.20      14.3  T
  17    -11.1140864 -0.402290E-07  0.210E-04    1.20     143.8  T
  18    -11.1140864 -0.183798E-09  0.982E-05    1.20     307.1  T
     SCC iter.                  ...        0 min,  0.003 sec
     gradient                   ...        0 min,  0.000 sec
 * total energy  :   -10.8953433 Eh     change       -0.4958165E-02 Eh
   gradient norm :     0.0365977 Eh/α   predicted    -0.5690155E-02 (  14.76%)
   displ. norm   :     0.4401481 α      lambda       -0.7166353E-02
   maximum displ.:     0.2031157 α      in ANC's #7, #6, #9, ...
 * RMSD in coord.:     1.7912897 α      energy gain  -0.5031375E+00 Eh

generating ANC from model Hessian ...
Using Lindh-Hessian (1995)
 Shifting diagonal of input Hessian by    1.0379989017713327E-002
 Lowest  eigenvalues of input Hessian
    0.010000    0.010102    0.010208    0.010324    0.010330    0.010372
    0.000000    0.000000    0.000000    0.000000    0.000000    0.000000
    0.010386    0.010501    0.010663    0.010745    0.011165    0.011543
 Highest eigenvalues
    0.531273    0.638468    0.653508    0.757434    1.606328    1.943551


........................................................................
.............................. CYCLE   21 ..............................
........................................................................
   1    -11.1296074 -0.111296E+02  0.248E+00    1.10       0.0  T
   2    -11.0034159  0.126192E+00  0.236E+00    0.86       1.0  T
   3    -10.8901556  0.113260E+00  0.375E+00    2.32       1.0  T
   4    -11.0665082 -0.176353E+00  0.236E+00    1.31       1.0  T
   5    -11.1077022 -0.411940E-01  0.151E+00    1.50       1.0  T
   6    -11.1364147 -0.287125E-01  0.637E-01    1.24       1.0  T
   7    -11.1368201 -0.405394E-03  0.589E-01    1.25       1.0  T
   8    -11.1370513 -0.231146E-03  0.562E-01    1.24       1.0  T
   9    -11.1395719 -0.252060E-02  0.123E-01    1.23       1.0  T
  10    -11.1396613 -0.894730E-04  0.513E-02    1.22       1.0  T
  11    -11.1396309  0.304797E-04  0.493E-02    1.24       1.0  T
  12    -11.1396729 -0.420529E-04  0.140E-02    1.23       2.2  T
  13    -11.1396752 -0.228072E-05  0.194E-03    1.23      15.5  T
  14    -11.1396751  0.730268E-07  0.226E-03    1.23      13.3  T
  15    -11.1396752 -0.766184E-07  0.929E-04    1.23      32.5  T
  16    -11.1396752 -0.131684E-07  0.502E-04    1.23      60.1  T
     SCC iter.                  ...        0 min,  0.002 sec
     gradient                   ...        0 min,  0.001 sec
 * total energy  :   -10.8951253 Eh     change        0.2180129E-03 Eh
   gradient norm :     0.0552452 Eh/α   predicted     0.0000000E+00 (-100.00%)
   displ. norm   :     0.3242059 α      lambda       -0.5549706E-02
   maximum displ.:     0.1621464 α      in ANC's #14, #17, #16, ...

........................................................................
.............................. CYCLE   22 ..............................
........................................................................
   1    -11.1361014 -0.111361E+02  0.978E-01    1.25       0.0  T
   2    -11.1275999  0.850144E-02  0.907E-01    1.42       1.0  T
   3    -11.0521166  0.754833E-01  0.183E+00    0.75       1.0  T
   4    -11.1057425 -0.536258E-01  0.121E+00    1.53       1.0  T
   5    -11.1318182 -0.260757E-01  0.492E-01    1.36       1.0  T
   6    -11.1329248 -0.110657E-02  0.389E-01    1.39       1.0  T
   7    -11.1363997 -0.347496E-02  0.161E-01    1.29       1.0  T
   8    -11.1365237 -0.123953E-03  0.133E-01    1.29       1.0  T
   9    -11.1367542 -0.230510E-03  0.213E-02    1.27       1.4  T
  10    -11.1367467  0.749492E-05  0.238E-02    1.27       1.3  T
  11    -11.1367571 -0.103859E-04  0.426E-03    1.28       7.1  T
  12    -11.1367570  0.121800E-06  0.364E-03    1.28       8.3  T
  13    -11.1367572 -0.219066E-06  0.569E-04    1.28      53.0  T
  14    -11.1367572 -0.490928E-08  0.411E-04    1.28      73.4  T
     SCC iter.                  ...        0 min,  0.003 sec
     gradient                   ...        0 min,  0.000 sec
 * total energy  :   -10.8992092 Eh     change       -0.4083990E-02 Eh
   gradient norm :     0.0301749 Eh/α   predicted    -0.3066519E-02 ( -24.91%)
   displ. norm   :     0.4962823 α      lambda       -0.5167335E-02
   maximum displ.:     0.2554262 α      in ANC's #13, #17, #14, ...

........................................................................
.............................. CYCLE   23 ..............................
........................................................................
   1    -11.1214835 -0.111215E+02  0.159E+00    1.21       0.0  T
   2    -11.1073234  0.141601E-01  0.127E+00    1.16       1.0  T
   3    -11.0693275  0.379958E-01  0.184E+00    1.16       1.0  T
   4    -11.0580059  0.113216E-01  0.153E+00    0.79       1.0  T
   5    -11.0675156 -0.950968E-02  0.155E+00    1.49       1.0  T
   6    -11.1100029 -0.424873E-01  0.749E-01    1.36       1.0  T
   7    -11.1228011 -0.127982E-01  0.391E-01    1.24       1.0  T
   8    -11.1238277 -0.102660E-02  0.345E-01    1.20       1.0  T
   9    -11.1238614 -0.337307E-04  0.252E-01    1.18       1.0  T
  10    -11.1243489 -0.487482E-03  0.205E-01    1.24       1.0  T
  11    -11.1243443  0.459342E-05  0.198E-01    1.25       1.0  T
  12    -11.1244806 -0.136245E-03  0.120E-01    1.24       1.0  T
  13    -11.1245557 -0.751503E-04  0.424E-02    1.23       1.0  T
  14    -11.1245592 -0.346134E-05  0.376E-03    1.23       8.0  T
  15    -11.1245588  0.400311E-06  0.109E-02    1.23       2.8  T
  16    -11.1245593 -0.473804E-06  0.146E-03    1.23      20.6  T
  17    -11.1245593 -0.487289E-08  0.789E-04    1.23      38.2  T
  18    -11.1245593 -0.308001E-08  0.271E-05    1.23    1113.5  T
     SCC iter.                  ...        0 min,  0.004 sec
     gradient                   ...        0 min,  0.000 sec
 * total energy  :   -10.9016258 Eh     change       -0.2416550E-02 Eh
   gradient norm :     0.0480497 Eh/α   predicted    -0.3220016E-02 (  33.25%)
   displ. norm   :     0.4722692 α      lambda       -0.4712909E-02
   maximum displ.:     0.2512763 α      in ANC's #5, #14, #17, ...

........................................................................
.............................. CYCLE   24 ..............................
........................................................................
   1    -11.1330297 -0.111330E+02  0.943E-01    1.11       0.0  T
   2    -10.9969656  0.136064E+00  0.304E+00    1.51       1.0  T
   3    -11.1296673 -0.132702E+00  0.846E-01    1.27       1.0  T
   4    -11.1157826  0.138847E-01  0.103E+00    1.07       1.0  T
   5    -11.1307280 -0.149453E-01  0.594E-01    1.17       1.0  T
   6    -11.1343774 -0.364946E-02  0.230E-01    1.14       1.0  T
   7    -11.1354456 -0.106821E-02  0.987E-02    1.19       1.0  T
   8    -11.1354921 -0.464864E-04  0.735E-02    1.18       1.0  T
   9    -11.1355046 -0.124392E-04  0.562E-02    1.17       1.0  T
  10    -11.1355555 -0.508897E-04  0.247E-02    1.18       1.2  T
  11    -11.1355578 -0.237926E-05  0.198E-02    1.18       1.5  T
  12    -11.1355586 -0.728350E-06  0.160E-02    1.18       1.9  T
  13    -11.1355595 -0.885795E-06  0.125E-02    1.19       2.4  T
  14    -11.1355597 -0.235778E-06  0.110E-02    1.19       2.7  T
  15    -11.1355605 -0.766004E-06  0.452E-03    1.19       6.7  T
  16    -11.1355605 -0.892411E-07  0.297E-03    1.19      10.1  T
  17    -11.1355606 -0.626608E-07  0.164E-04    1.19     183.9  T
  18    -11.1355606 -0.703313E-10  0.131E-04    1.19     229.4  T
     SCC iter.                  ...        0 min,  0.003 sec
     gradient                   ...        0 min,  0.000 sec
 * total energy  :   -10.9049909 Eh     change       -0.3365097E-02 Eh
   gradient norm :     0.0363943 Eh/α   predicted    -0.2882038E-02 ( -14.35%)
   displ. norm   :     0.6333305 α      lambda       -0.5313502E-02
   maximum displ.:     0.3460847 α      in ANC's #17, #5, #14, ...

........................................................................
.............................. CYCLE   25 ..............................
........................................................................
   1    -11.1286260 -0.111286E+02  0.143E+00    1.12       0.0  T
   2    -11.1147262  0.138998E-01  0.115E+00    0.95       1.0  T
   3    -10.9330859  0.181640E+00  0.341E+00    1.64       1.0  T
   4    -11.0907006 -0.157615E+00  0.153E+00    1.20       1.0  T
   5    -11.1200876 -0.293870E-01  0.708E-01    1.17       1.0  T
   6    -11.1289540 -0.886636E-02  0.314E-01    1.09       1.0  T
   7    -11.1281332  0.820786E-03  0.350E-01    1.00       1.0  T
   8    -11.1301207 -0.198749E-02  0.167E-01    1.06       1.0  T
   9    -11.1300640  0.566440E-04  0.162E-01    1.06       1.0  T
  10    -11.1302270 -0.162953E-03  0.122E-01    1.07       1.0  T
  11    -11.1302769 -0.499087E-04  0.995E-02    1.08       1.0  T
  12    -11.1302996 -0.226603E-04  0.727E-02    1.09       1.0  T
  13    -11.1303158 -0.162962E-04  0.467E-02    1.09       1.0  T
  14    -11.1303237 -0.788787E-05  0.279E-02    1.10       1.1  T
  15    -11.1303278 -0.403607E-05  0.628E-03    1.10       4.8  T
  16    -11.1303280 -0.194625E-06  0.140E-03    1.10      21.5  T
  17    -11.1303280 -0.112701E-07  0.376E-04    1.10      80.2  T
  18    -11.1303280 -0.695044E-09  0.181E-04    1.10     166.4  T
     SCC iter.                  ...        0 min,  0.003 sec
     gradient                   ...        0 min,  0.000 sec
 * total energy  :   -10.9090501 Eh     change       -0.4059215E-02 Eh
   gradient norm :     0.0351033 Eh/α   predicted    -0.3722383E-02 (  -8.30%)
   displ. norm   :     0.6973820 α      lambda       -0.7655714E-02
   maximum displ.:     0.4274086 α      in ANC's #17, #13, #5, ...

........................................................................
.............................. CYCLE   26 ..............................
........................................................................
   1    -11.1449395 -0.111449E+02  0.125E+00    1.20       0.0  T
   2    -11.0586220  0.863175E-01  0.176E+00    0.53       1.0  T
   3    -11.0583921  0.229960E-03  0.225E+00    1.55       1.0  T
   4    -11.0828297 -0.244376E-01  0.185E+00    1.46       1.0  T
   5    -11.1055812 -0.227516E-01  0.143E+00    1.22       1.0  T
   6    -11.1465865 -0.410052E-01  0.512E-01    0.98       1.0  T
   7    -11.1481396 -0.155313E-02  0.457E-01    0.92       1.0  T
   8    -11.1483812 -0.241562E-03  0.358E-01    0.99       1.0  T
   9    -11.1491387 -0.757569E-03  0.276E-01    0.99       1.0  T
  10    -11.1491896 -0.508524E-04  0.167E-01    1.03       1.0  T
  11    -11.1493332 -0.143584E-03  0.417E-02    1.05       1.0  T
  12    -11.1493586 -0.254551E-04  0.253E-02    1.05       1.2  T
  13    -11.1493606 -0.202352E-05  0.135E-02    1.05       2.2  T
  14    -11.1493618 -0.117176E-05  0.320E-03    1.05       9.4  T
  15    -11.1493619 -0.112588E-06  0.329E-03    1.06       9.2  T
  16    -11.1493620 -0.601695E-07  0.135E-03    1.06      22.3  T
  17    -11.1493620 -0.841405E-08  0.208E-04    1.06     144.8  T
  18    -11.1493620  0.213472E-09  0.219E-04    1.06     137.7  T
     SCC iter.                  ...        0 min,  0.003 sec
     gradient                   ...        0 min,  0.001 sec
 * total energy  :   -10.9103176 Eh     change       -0.1267480E-02 Eh
   gradient norm :     0.0546778 Eh/α   predicted    -0.5689525E-02 ( 348.88%)
   displ. norm   :     0.4086817 α      lambda       -0.1502718E-01
   maximum displ.:     0.2827096 α      in ANC's #17, #15, #13, ...

........................................................................
.............................. CYCLE   27 ..............................
........................................................................
   1    -11.1518488 -0.111518E+02  0.106E+00    1.33       0.0  T
   2    -11.0905181  0.613307E-01  0.168E+00    0.64       1.0  T
   3    -11.1238589 -0.333407E-01  0.138E+00    1.38       1.0  T
   4    -11.1500723 -0.262134E-01  0.614E-01    1.33       1.0  T
   5    -11.1550105 -0.493821E-02  0.293E-01    1.18       1.0  T
   6    -11.1550794 -0.688342E-04  0.331E-01    1.11       1.0  T
   7    -11.1551420 -0.626471E-04  0.328E-01    1.11       1.0  T
[...]
   gradient norm :     0.0012900 Eh/α   predicted    -0.6382746E-05 ( -27.02%)
   displ. norm   :     0.1026967 α      lambda       -0.9610966E-05
   maximum displ.:     0.0639070 α      in ANC's #10, #2, #14, ...

........................................................................
.............................. CYCLE   86 ..............................
........................................................................
   1    -11.1523310 -0.111523E+02  0.136E-01    1.19       0.0  T
   2    -11.1501598  0.217117E-02  0.436E-01    1.22       1.0  T
   3    -11.1523215 -0.216164E-02  0.927E-02    1.19       1.0  T
   4    -11.1522440  0.774667E-04  0.789E-02    1.19       1.0  T
   5    -11.1523260 -0.820392E-04  0.320E-02    1.19       1.0  T
   6    -11.1523277 -0.164453E-05  0.284E-02    1.19       1.1  T
   7    -11.1523433 -0.156284E-04  0.596E-03    1.19       5.1  T
   8    -11.1523434 -0.805880E-07  0.356E-03    1.19       8.5  T
   9    -11.1523435 -0.109270E-06  0.153E-03    1.19      19.7  T
  10    -11.1523435 -0.224748E-07  0.694E-04    1.19      43.4  T
  11    -11.1523435 -0.155305E-08  0.208E-04    1.19     145.2  T
     SCC iter.                  ...        0 min,  0.001 sec
     gradient                   ...        0 min,  0.000 sec
 * total energy  :   -10.9239596 Eh     change       -0.7775084E-05 Eh
   gradient norm :     0.0015362 Eh/α   predicted    -0.4828332E-05 ( -37.90%)
   displ. norm   :     0.0435123 α      lambda       -0.5124469E-05
   maximum displ.:     0.0240259 α      in ANC's #14, #10, #2, ...

........................................................................
.............................. CYCLE   87 ..............................
........................................................................
   1    -11.1520176 -0.111520E+02  0.544E-02    1.19       0.0  T
   2    -11.1519454  0.722146E-04  0.818E-02    1.18       1.0  T
   3    -11.1515702  0.375266E-03  0.196E-01    1.20       1.0  T
   4    -11.1518375 -0.267321E-03  0.932E-02    1.18       1.0  T
   5    -11.1520158 -0.178335E-03  0.133E-02    1.19       2.3  T
   6    -11.1520179 -0.204613E-05  0.761E-03    1.19       4.0  T
   7    -11.1520176  0.313418E-06  0.755E-03    1.19       4.0  T
   8    -11.1520186 -0.103587E-05  0.149E-03    1.19      20.2  T
   9    -11.1520186 -0.239062E-07  0.300E-04    1.19     100.6  T
  10    -11.1520186  0.794456E-09  0.391E-04    1.19      77.2  T
     SCC iter.                  ...        0 min,  0.002 sec
     gradient                   ...        0 min,  0.000 sec
 * total energy  :   -10.9239651 Eh     change       -0.5518422E-05 Eh
   gradient norm :     0.0010681 Eh/α   predicted    -0.2564202E-05 ( -53.53%)
   displ. norm   :     0.0660188 α      lambda       -0.6079741E-05
   maximum displ.:     0.0420589 α      in ANC's #14, #12, #8, ...

........................................................................
.............................. CYCLE   88 ..............................
........................................................................
   1    -11.1520484 -0.111520E+02  0.967E-02    1.19       0.0  T
   2    -11.1517642  0.284240E-03  0.156E-01    1.17       1.0  T
   3    -11.1501620  0.160218E-02  0.406E-01    1.22       1.0  T
   4    -11.1515612 -0.139918E-02  0.150E-01    1.17       1.0  T
   5    -11.1520464 -0.485202E-03  0.217E-02    1.19       1.4  T
   6    -11.1520494 -0.303592E-05  0.143E-02    1.18       2.1  T
   7    -11.1520478  0.158723E-05  0.171E-02    1.18       1.8  T
   8    -11.1520502 -0.237939E-05  0.943E-03    1.19       3.2  T
   9    -11.1520518 -0.154515E-05  0.150E-03    1.18      20.1  T
  10    -11.1520518 -0.228579E-07  0.669E-04    1.18      45.0  T
  11    -11.1520518 -0.274808E-08  0.329E-04    1.18      91.7  T
     SCC iter.                  ...        0 min,  0.002 sec
     gradient                   ...        0 min,  0.001 sec
 * total energy  :   -10.9239685 Eh     change       -0.3371449E-05 Eh
   gradient norm :     0.0007710 Eh/α   predicted    -0.3046398E-05 (  -9.64%)
   displ. norm   :     0.0409177 α      lambda       -0.1947841E-05
   maximum displ.:     0.0220892 α      in ANC's #3, #2, #10, ...

   *** GEOMETRY OPTIMIZATION CONVERGED AFTER 88 ITERATIONS ***

------------------------------------------------------------------------
 total energy gain   :        -0.5317628 Eh     -333.6862 kcal/mol
 total RMSD          :         2.6588338 a0        1.4070 Å
 total power (kW/mol):       -15.8652604 (step)-3401.1773 (real)
------------------------------------------------------------------------

 ANCopt (total)                0 d,  0 h,  0 min,  0.410 sec
 optimizer setup                ...        0 min,  0.000 sec (  0.006%)
 model hessian                  ...        0 min,  0.001 sec (  0.196%)
 ANC generation                 ...        0 min,  0.000 sec (  0.096%)
 coordinate transformation      ...        0 min,  0.000 sec (  0.062%)
 single point calculation       ...        0 min,  0.398 sec ( 96.842%)
 optimization log               ...        0 min,  0.006 sec (  1.340%)
 hessian update                 ...        0 min,  0.003 sec (  0.624%)
 rational function              ...        0 min,  0.002 sec (  0.450%)

================
 final structure:
================
11
 xtb: 6.5.1 (conda-forge)
Be           0.52478321411228       -0.28162889672068        0.36165449743766
B            1.65274636547596        0.23524183281402        1.45435150838941
C            2.60168993525577        0.61401656470096        2.39507706101759
C            3.33492660847755        1.62409249424811        3.24653789750806
C            3.65161205206834        0.34020639834224        3.35157212147390
H            4.14444780817710       -0.56077743369600        3.70503223204749
H            4.57469396688106       -2.08579982701017        4.13233730194792
H            2.54244829168602        2.70625021140680        4.64552330795149
H            2.16654604876079        3.06779331767352        5.26715574963618
H            2.16303095225409        0.33594456466348        6.05346697792572
H            2.10107475689858       -0.29862422650521        6.49979134474404

 Bond Distances (Angstroems)
 ---------------------------
Be1-B2=1.6533        B2-Be1=1.6533        B2-C3=1.3889         C3-B2=1.3889         C3-C4=1.5109         C3-C5=1.4464         
C4-C3=1.5109         C4-C5=1.3265         C5-C3=1.4464         C5-C4=1.3265         C5-H6=1.0861         H6-C5=1.0861         
H8-H9=0.8114         H9-H8=0.8114         H10-H11=0.7783       H11-H10=0.7783       
 H  H  Rav=0.7949 sigma=0.0166  Rmin=0.7783  Rmax=0.8114     2
 B  Be Rav=1.6533 sigma=0.0000  Rmin=1.6533  Rmax=1.6533     1
 C  H  Rav=1.0861 sigma=0.0000  Rmin=1.0861  Rmax=1.0861     1
 C  B  Rav=1.3889 sigma=0.0000  Rmin=1.3889  Rmax=1.3889     1
 C  C  Rav=1.4280 sigma=0.0764  Rmin=1.3265  Rmax=1.5109     3

 selected bond angles (degree)
 --------------------
C3-B2-Be1=177.53               C4-C3-B2=153.59                C5-C3-B2=153.15                C5-C3-C4= 53.25                
C5-C4-C3= 60.89                C4-C5-C3= 65.87                H6-C5-C3=134.56                H6-C5-C4=159.55                

 selected dihedral angles (degree)
 ---------------------------------
C4-C3-B2-Be1=202.27           C5-C3-B2-Be1= 19.96           C5-C4-C3-B2=178.70            C4-C5-C3-B2=181.28            
H6-C5-C3-B2=  0.08            H6-C5-C3-C4=178.80            H6-C5-C4-C3=182.44            

 CMA Distance (Angstroems)
 ---------------------------
R(CMA):  3.5915
           -------------------------------------------------
          |                Final Singlepoint                |
           -------------------------------------------------

          ...................................................
          :                      SETUP                      :
          :.................................................:
          :  # basis functions                  26          :
          :  # atomic orbitals                  26          :
          :  # shells                           16          :
          :  # electrons                        23          :
          :  max. iterations                   250          :
          :  Hamiltonian                  GFN2-xTB          :
          :  restarted?                      false          :
          :  GBSA solvation                  false          :
          :  PC potential                    false          :
          :  electronic temp.          300.0000000     K    :
          :  accuracy                    1.0000000          :
          :  -> integral cutoff          0.2500000E+02      :
          :  -> integral neglect         0.1000000E-07      :
          :  -> SCF convergence          0.1000000E-05 Eh   :
          :  -> wf. convergence          0.1000000E-03 e    :
          :  Broyden damping             0.4000000          :
          ...................................................

 iter      E             dE          RMSdq      gap      omega  full diag
   1    -11.1520518 -0.111521E+02  0.596E-05    1.18       0.0  T
   2    -11.1520518  0.126976E-08  0.315E-04    1.18      95.9  T
   3    -11.1520518 -0.856515E-09  0.179E-04    1.18     168.3  T

   *** convergence criteria satisfied after 3 iterations ***

         #    Occupation            Energy/Eh            Energy/eV
      -------------------------------------------------------------
         1        2.0000           -0.6171358             -16.7931
       ...           ...                  ...                  ...
         6        2.0000           -0.4355533             -11.8520
         7        2.0000           -0.4202758             -11.4363
         8        2.0000           -0.4071180             -11.0782
         9        2.0000           -0.3908546             -10.6357
        10        2.0000           -0.3391246              -9.2280
        11        1.8528           -0.3182366              -8.6597
        12        1.1472           -0.3148983              -8.5688 (HOMO)
        13                         -0.2713580              -7.3840 (LUMO)
        14                         -0.2598594              -7.0711
        15                         -0.2280255              -6.2049
        16                         -0.1789888              -4.8705
        17                         -0.1284972              -3.4966
       ...                                ...                  ...
        26                          0.8596165              23.3914
      -------------------------------------------------------------
                  HL-Gap            0.0435403 Eh            1.1848 eV
             Fermi-level           -0.3048408 Eh           -8.2951 eV

 SCC (total)                   0 d,  0 h,  0 min,  0.001 sec
 SCC setup                      ...        0 min,  0.000 sec (  1.764%)
 Dispersion                     ...        0 min,  0.000 sec (  4.214%)
 classical contributions        ...        0 min,  0.000 sec (  2.886%)
 integral evaluation            ...        0 min,  0.000 sec ( 16.331%)
 iterations                     ...        0 min,  0.000 sec ( 30.486%)
 molecular gradient             ...        0 min,  0.000 sec ( 40.426%)
 printout                       ...        0 min,  0.000 sec (  2.978%)

         :::::::::::::::::::::::::::::::::::::::::::::::::::::
         ::                     SUMMARY                     ::
         :::::::::::::::::::::::::::::::::::::::::::::::::::::
         :: total energy             -10.923968522234 Eh    ::
         :: gradient norm              0.000772844984 Eh/a0 ::
         :: HOMO-LUMO gap              1.184792925281 eV    ::
         ::.................................................::
         :: SCC energy               -11.152051782002 Eh    ::
         :: -> isotropic ES           -0.008354449928 Eh    ::
         :: -> anisotropic ES          0.017382551313 Eh    ::
         :: -> anisotropic XC         -0.001768454135 Eh    ::
         :: -> dispersion             -0.006199729151 Eh    ::
         :: repulsion energy           0.228064268096 Eh    ::
         :: add. restraining           0.000000000000 Eh    ::
         :: total charge               0.000000000052 e     ::
         :::::::::::::::::::::::::::::::::::::::::::::::::::::

           -------------------------------------------------
          |                Property Printout                |
           -------------------------------------------------

    * Orbital Energies and Occupations

         #    Occupation            Energy/Eh            Energy/eV
      -------------------------------------------------------------
         1        2.0000           -0.6171358             -16.7931
         2        2.0000           -0.5202203             -14.1559
         3        2.0000           -0.5081603             -13.8277
         4        2.0000           -0.4545050             -12.3677
         5        2.0000           -0.4431600             -12.0590
         6        2.0000           -0.4355533             -11.8520
         7        2.0000           -0.4202758             -11.4363
         8        2.0000           -0.4071180             -11.0782
         9        2.0000           -0.3908546             -10.6357
        10        2.0000           -0.3391246              -9.2280
        11        1.8528           -0.3182366              -8.6597
        12        1.1472           -0.3148983              -8.5688 (HOMO)
        13                         -0.2713580              -7.3840 (LUMO)
        14                         -0.2598594              -7.0711
        15                         -0.2280255              -6.2049
        16                         -0.1789888              -4.8705
        17                         -0.1284972              -3.4966
        18                         -0.0607549              -1.6532
        19                          0.0720167               1.9597
        20                          0.1490815               4.0567
        21                          0.1684909               4.5849
        22                          0.1843357               5.0160
        23                          0.2396700               6.5218
       ...                                ...                  ...
        26                          0.8596165              23.3914
      -------------------------------------------------------------
                  HL-Gap            0.0435403 Eh            1.1848 eV
             Fermi-level           -0.3048408 Eh           -8.2951 eV

     #   Z          covCN         q      C6AA      α(0)
     1   4 Be       0.912     0.403    65.325    24.241
     2   5 B        1.819    -0.024    45.494    14.209
     3   6 C        2.863    -0.033    28.827     8.801
     4   6 C        1.957    -0.158    35.562     9.630
     5   6 C        2.885     0.005    27.898     8.659
     6   1 H        0.925     0.070     2.091     2.261
     7   1 H        0.000    -0.251    38.858    11.398
     8   1 H        0.685     0.028     2.822     2.678
     9   1 H        0.685    -0.039     4.152     3.248
    10   1 H        0.809     0.005     3.017     2.728
    11   1 H        0.809    -0.007     3.234     2.824

 Mol. C6AA /au·bohr⁶  :       2040.839335
 Mol. C8AA /au·bohr⁸  :      53156.346654
 Mol. α(0) /au        :         90.677161


Wiberg/Mayer (AO) data.
largest (>0.10) Wiberg bond orders for each atom

 ---------------------------------------------------------------------------
     #   Z sym  total        # sym  WBO       # sym  WBO       # sym  WBO
 ---------------------------------------------------------------------------
     1   4 Be   1.808 --     2 B    1.406     3 C    0.219     4 C    0.108
     2   5 B    3.457 --     3 C    1.731     1 Be   1.406     4 C    0.196
     3   6 C    3.862 --     2 B    1.731     5 C    1.040     4 C    0.862
                             1 Be   0.219
     4   6 C    3.018 --     5 C    1.700     3 C    0.862     2 B    0.196
                             1 Be   0.108
     5   6 C    3.813 --     4 C    1.700     3 C    1.040     6 H    0.869
     6   1 H    0.993 --     5 C    0.869
     7   1 H    0.150
     8   1 H    0.999 --     9 H    0.918
     9   1 H    0.976 --     8 H    0.918
    10   1 H    1.000 --    11 H    0.998
    11   1 H    1.000 --    10 H    0.998
 ---------------------------------------------------------------------------

Topologies differ in total number of bonds
Writing topology from bond orders to xtbtopo.mol

molecular dipole:
                 x           y           z       tot (Debye)
 q only:       -2.450       0.096      -2.514
   full:       -3.323      -0.883      -3.382      12.258
molecular quadrupole (traceless):
                xx          xy          yy          xz          yz          zz
 q only:       -8.079       6.463      14.938     -30.240       4.508      -6.859
  q+dip:       -8.361       1.708      14.534     -29.880       0.455      -6.173
   full:       -8.587       0.943      15.438     -32.040      -0.420      -6.851

           -------------------------------------------------
          |                Geometry Summary                 |
           -------------------------------------------------

      molecular mass/u    :       61.9030633
   center of mass at/Å    :        2.5134743       0.5518709       2.5449642
  moments of inertia/u·Å² :        0.5627095E+02   0.1964275E+03   0.2081432E+03
rotational constants/cm⁻¹ :        0.2995797E+00   0.8582116E-01   0.8099054E-01

 * 5 selected distances

     #   Z          #   Z                                           value/Å
     1   4 Be       2   5 B                                       1.6533129 (max)
     2   5 B        3   6 C                                       1.3888589
     4   6 C        5   6 C                                       1.3265315
     5   6 C        6   1 H                                       1.0860908
    10   1 H       11   1 H                                       0.7782812 (min)

 * 5 distinct bonds (by element types)

   Z      Z             #   av. dist./Å        max./Å        min./Å
   1 H    1 H           1     0.7782812     0.7782812     0.7782812
   4 Be   5 B           1     1.6533129     1.6533129     1.6533129
   1 H    6 C           1     1.0860908     1.0860908     1.0860908
   5 B    6 C           1     1.3888589     1.3888589     1.3888589
   6 C    6 C           1     1.3265315     1.3265315     1.3265315


optimized geometry written to: xtbopt.xyz
Note: The following floating-point exceptions are signalling: IEEE_UNDERFLOW_FLAG
normal termination of xtb


           -------------------------------------------------
          | TOTAL ENERGY              -10.923968522234 Eh   |
          | GRADIENT NORM               0.000772844984 Eh/α |
          | HOMO-LUMO GAP               1.184792925281 eV   |
           -------------------------------------------------
########################################################################
[WARNING] Runtime exception occurred
-3- restart_readRestart: Dimension missmatch in restart file.
-2- restart_readRestart: Multiplicity missmatch in restart file.
-1- restart_readRestart: Number of electron missmatch in restart file.
########################################################################

------------------------------------------------------------------------
 * finished run on 2025/06/07 at 03:27:49.622     
------------------------------------------------------------------------
 total:
 * wall-time:     0 d,  0 h,  0 min,  0.572 sec
 *  cpu-time:     0 d,  0 h,  0 min,  7.356 sec
 * ratio c/w:    12.865 speedup
 SCF:
 * wall-time:     0 d,  0 h,  0 min,  0.157 sec
 *  cpu-time:     0 d,  0 h,  0 min,  2.068 sec
 * ratio c/w:    13.212 speedup
 ANC optimizer:
 * wall-time:     0 d,  0 h,  0 min,  0.412 sec
 *  cpu-time:     0 d,  0 h,  0 min,  5.253 sec
 * ratio c/w:    12.752 speedup

