      -----------------------------------------------------------      
     |                   =====================                   |     
     |                           x T B                           |     
     |                   =====================                   |     
     |                         S. Grimme                         |     
     |          Mulliken Center for Theoretical Chemistry        |     
     |                    University of Bonn                     |     
      -----------------------------------------------------------      

   * xtb version 6.5.1 (conda-forge) compiled by 'runner@Mac-1657629245115.local' on 2022-07-12

   xtb is free software: you can redistribute it and/or modify it under
   the terms of the GNU Lesser General Public License as published by
   the Free Software Foundation, either version 3 of the License, or
   (at your option) any later version.
   
   xtb is distributed in the hope that it will be useful,
   but WITHOUT ANY WARRANTY; without even the implied warranty of
   MERCHANTABILITY or FITNESS FOR A PARTICULAR PURPOSE.  See the
   GNU Lesser General Public License for more details.
   
   Cite this work as:
   * C. Bannwarth, E. Caldeweyher, S. Ehlert, A. Hansen, P. Pracht,
     J. Seibert, S. Spicher, S. Grimme, WIREs Comput. Mol. Sci., 2020, 11,
     e01493. DOI: 10.1002/wcms.1493
   
   for GFN2-xTB:
   * C. Bannwarth, S. Ehlert and S. Grimme., J. Chem. Theory Comput., 2019,
     15, 1652-1671. DOI: 10.1021/acs.jctc.8b01176
   for GFN1-xTB:
   * S. Grimme, C. Bannwarth, P. Shushkov, J. Chem. Theory Comput., 2017,
     13, 1989-2009. DOI: 10.1021/acs.jctc.7b00118
   for GFN0-xTB:
   * P. Pracht, E. Caldeweyher, S. Ehlert, S. Grimme, ChemRxiv, 2019, preprint.
     DOI: 10.26434/chemrxiv.8326202.v1
   for GFN-FF:
   * S. Spicher and S. Grimme, Angew. Chem. Int. Ed., 2020, 59, 15665-15673.
     DOI: 10.1002/anie.202004239
   
   for ALPB and GBSA implicit solvation:
   * S. Ehlert, M. Stahn, S. Spicher, S. Grimme, J. Chem. Theory Comput.,
     2021, 17, 4250-4261. DOI: 10.1021/acs.jctc.1c00471
   
   for DFT-D4:
   * E. Caldeweyher, C. Bannwarth and S. Grimme, J. Chem. Phys., 2017,
     147, 034112. DOI: 10.1063/1.4993215
   * E. Caldeweyher, S. Ehlert, A. Hansen, H. Neugebauer, S. Spicher,
     C. Bannwarth and S. Grimme, J. Chem. Phys., 2019, 150, 154122.
     DOI: 10.1063/1.5090222
   * E. Caldeweyher, J.-M. Mewes, S. Ehlert and S. Grimme, Phys. Chem. Chem. Phys.
     2020, 22, 8499-8512. DOI: 10.1039/D0CP00502A
   
   for sTDA-xTB:
   * S. Grimme and C. Bannwarth, J. Chem. Phys., 2016, 145, 054103.
     DOI: 10.1063/1.4959605
   
   in the mass-spec context:
   * V. Asgeirsson, C. Bauer and S. Grimme, Chem. Sci., 2017, 8, 4879.
     DOI: 10.1039/c7sc00601b
   * J. Koopman and S. Grimme, ACS Omega 2019, 4, 12, 15120-15133.
     DOI: 10.1021/acsomega.9b02011
   
   for metadynamics refer to:
   * S. Grimme, J. Chem. Theory Comput., 2019, 155, 2847-2862
     DOI: 10.1021/acs.jctc.9b00143
   
   for SPH calculations refer to:
   * S. Spicher and S. Grimme, J. Chem. Theory Comput., 2021, 17, 1701-1714
     DOI: 10.1021/acs.jctc.0c01306
   
   with help from (in alphabetical order)
   P. Atkinson, C. Bannwarth, F. Bohle, G. Brandenburg, E. Caldeweyher
   M. Checinski, S. Dohm, S. Ehlert, S. Ehrlich, I. Gerasimov, C. Hölzer
   A. Katbashev, J. Koopman, C. Lavigne, S. Lehtola, F. März, M. Müller,
   F. Musil, H. Neugebauer, J. Pisarek, C. Plett, P. Pracht, F. Pultar,
   J. Seibert, P. Shushkov, S. Spicher, M. Stahn, M. Steiner, T. Strunk,
   J. Stückrath, T. Rose, and J. Unsleber
   
 * started run on 2025/06/07 at 03:27:48.160     

           -------------------------------------------------
          |                Calculation Setup                |
           -------------------------------------------------

          program call               : xtb BBeC3H3.xyz --gfn 2 --opt
          coordinate file            : BBeC3H3.xyz
          omp threads                :                    16

   ID    Z sym.   atoms
    1    4 Be     1
    2    5 B      2
    3    6 C      3-5
    4    1 H      6-8

molecular fragmentation (1/2 indicates fragments):
12222222
# atoms in fragment 1/2:     1     7
 fragment masses (1/2) :        9.01       49.87
CMA distance (Bohr)    :   7.221
constraining FC (au)   :  0.0500

           -------------------------------------------------
          |                 G F N 2 - x T B                 |
           -------------------------------------------------

        Reference                      10.1021/acs.jctc.8b01176
      * Hamiltonian:
        H0-scaling (s, p, d)           1.850000    2.230000    2.230000
        zeta-weighting                 0.500000
      * Dispersion:
        s8                             2.700000
        a1                             0.520000
        a2                             5.000000
        s9                             5.000000
      * Repulsion:
        kExp                           1.500000    1.000000
        rExp                           1.000000
      * Coulomb:
        alpha                          2.000000
        third order                    shell-resolved
        anisotropic                    true
        a3                             3.000000
        a5                             4.000000
        cn-shift                       1.200000
        cn-exp                         4.000000
        max-rad                        5.000000


          ...................................................
          :                      SETUP                      :
          :.................................................:
          :  # basis functions                  23          :
          :  # atomic orbitals                  23          :
          :  # shells                           13          :
          :  # electrons                        20          :
          :  max. iterations                   250          :
          :  Hamiltonian                  GFN2-xTB          :
          :  restarted?                      false          :
          :  GBSA solvation                  false          :
          :  PC potential                    false          :
          :  electronic temp.          300.0000000     K    :
          :  accuracy                    1.0000000          :
          :  -> integral cutoff          0.2500000E+02      :
          :  -> integral neglect         0.1000000E-07      :
          :  -> SCF convergence          0.1000000E-05 Eh   :
          :  -> wf. convergence          0.1000000E-03 e    :
          :  Broyden damping             0.4000000          :
          ...................................................

 iter      E             dE          RMSdq      gap      omega  full diag
   1     13.8452894  0.138453E+02  0.254E+01    0.41       0.0  T
   2     -5.4938075 -0.193391E+02  0.186E+01    0.60       1.0  T
   3     -4.7592376  0.734570E+00  0.178E+01    1.10       1.0  T
   4     -6.7668427 -0.200761E+01  0.108E+01    0.11       1.0  T
   5     -5.9058657  0.860977E+00  0.133E+01    0.63       1.0  T
   6     -7.3719616 -0.146610E+01  0.832E+00    0.24       1.0  T
   7     -7.2390273  0.132934E+00  0.958E+00    0.46       1.0  T
   8     -7.4062853 -0.167258E+00  0.844E+00    0.25       1.0  T
   9     -7.4275773 -0.212920E-01  0.864E+00    0.24       1.0  T
  10     16.5976011  0.240252E+02  0.343E+01    0.19       1.0  T
  11     16.2114662 -0.386135E+00  0.286E+01    0.19       1.0  T
  12     -8.6764159 -0.248879E+02  0.802E+00    0.34       1.0  T
  13     -8.7010144 -0.245985E-01  0.756E+00    0.34       1.0  T
  14     -6.0978412  0.260317E+01  0.177E+01    0.13       1.0  T
  15     -7.6791309 -0.158129E+01  0.174E+01    0.33       1.0  T
  16     -7.3191968  0.359934E+00  0.176E+01    0.25       1.0  T
  17     -8.2093216 -0.890125E+00  0.164E+01    0.55       1.0  T
  18     -7.7249950  0.484327E+00  0.178E+01    0.34       1.0  T
  19     -5.0415900  0.268340E+01  0.170E+01    0.08       1.0  T
  20      8.2395915  0.132812E+02  0.197E+01    0.19       1.0  T
  21      8.2412541  0.166268E-02  0.197E+01    0.19       1.0  T
  22     14.6740787  0.643282E+01  0.255E+01    0.24       1.0  T
  23     14.6137731 -0.603057E-01  0.254E+01    0.24       1.0  T
  24     14.2112342 -0.402539E+00  0.248E+01    0.24       1.0  T
  25     16.1819322  0.197070E+01  0.314E+01    0.32       1.0  T
  26     16.7318838  0.549952E+00  0.367E+01    0.40       1.0  T
  27     16.3984687 -0.333415E+00  0.328E+01    0.37       1.0  T
  28     14.9683917 -0.143008E+01  0.278E+01    0.36       1.0  T
  29     15.2497361  0.281344E+00  0.285E+01    0.36       1.0  T
  30     15.1162687 -0.133467E+00  0.287E+01    0.33       1.0  T
  31     14.6171231 -0.499146E+00  0.284E+01    0.29       1.0  T
  32     -7.5365218 -0.221536E+02  0.131E+01    0.24       1.0  T
  33     -8.4440636 -0.907542E+00  0.538E+00    0.29       1.0  T
  34     -7.9541824  0.489881E+00  0.832E+00    0.26       1.0  T
  35     -8.2362035 -0.282021E+00  0.677E+00    0.26       1.0  T
  36     -8.1552300  0.809735E-01  0.711E+00    0.24       1.0  T
  37     -8.2152583 -0.600282E-01  0.586E+00    0.27       1.0  T
  38     -8.8809761 -0.665718E+00  0.880E+00    0.13       1.0  T
  39     -8.4994911  0.381485E+00  0.423E+00    0.27       1.0  T
  40     -8.2808852  0.218606E+00  0.136E+01    0.36       1.0  T
  41     -8.2493274  0.315578E-01  0.137E+01    0.40       1.0  T
  42     -7.6883379  0.560990E+00  0.148E+01    0.42       1.0  T
  43     -7.7479538 -0.596159E-01  0.148E+01    0.44       1.0  T
  44     -7.8841910 -0.136237E+00  0.146E+01    0.51       1.0  T
  45     -7.9252440 -0.410530E-01  0.144E+01    0.53       1.0  T
  46     -7.9357361 -0.104921E-01  0.143E+01    0.53       1.0  T
  47     -5.7714754  0.216426E+01  0.153E+01    0.15       1.0  T
  48     -2.6548817  0.311659E+01  0.148E+01    0.04       1.0  T
  49     -2.8761653 -0.221284E+00  0.148E+01    0.05       1.0  T
  50     -3.9333268 -0.105716E+01  0.155E+01    0.08       1.0  T
  51     -7.1037020 -0.317038E+01  0.147E+01    0.29       1.0  T
  52     -5.5714350  0.153227E+01  0.154E+01    0.15       1.0  T
  53     -5.8719831 -0.300548E+00  0.153E+01    0.16       1.0  T
  54     -3.6427111  0.222927E+01  0.153E+01    0.07       1.0  T
  55     -2.5804784  0.106223E+01  0.146E+01    0.04       1.0  T
  56     -4.1690900 -0.158861E+01  0.154E+01    0.08       1.0  T
  57      0.0258048  0.419489E+01  0.149E+01    0.05       1.0  T
  58     -8.9441431 -0.896995E+01  0.566E+00    0.13       1.0  T
  59     -7.6183263  0.132582E+01  0.143E+01    0.40       1.0  T
  60     -7.9414242 -0.323098E+00  0.136E+01    0.54       1.0  T
  61     -8.1143446 -0.172920E+00  0.131E+01    0.52       1.0  T
  62     -8.2058196 -0.914750E-01  0.129E+01    0.44       1.0  T
  63     -8.9335330 -0.727713E+00  0.606E+00    0.12       1.0  T
  64     -8.2186643  0.714869E+00  0.125E+01    0.41       1.0  T
  65     -8.3768667 -0.158202E+00  0.119E+01    0.25       1.0  T
  66     -8.3807448 -0.387809E-02  0.119E+01    0.24       1.0  T
  67     -8.3769061  0.383863E-02  0.119E+01    0.24       1.0  T
  68     -8.3337993  0.431068E-01  0.122E+01    0.29       1.0  T
  69     -8.4060502 -0.722508E-01  0.120E+01    0.24       1.0  T
  70     -8.5561066 -0.150056E+00  0.112E+01    0.17       1.0  T
  71     -8.7453838 -0.189277E+00  0.960E+00    0.13       1.0  T
  72     -8.9365376 -0.191154E+00  0.615E+00    0.13       1.0  T
  73     -8.8442512  0.922865E-01  0.403E+00    0.26       1.0  T
  74     -8.7582491  0.860021E-01  0.418E+00    0.29       1.0  T
  75     -8.7512313  0.701781E-02  0.420E+00    0.29       1.0  T
  76     -8.7027976  0.484337E-01  0.422E+00    0.29       1.0  T
  77     -8.7025471  0.250452E-03  0.425E+00    0.29       1.0  T
  78     -8.8217933 -0.119246E+00  0.336E+00    0.28       1.0  T
  79     -8.7250898  0.967035E-01  0.331E+00    0.29       1.0  T
  80     -8.7627939 -0.377041E-01  0.340E+00    0.29       1.0  T
  81     -8.7213395  0.414544E-01  0.334E+00    0.29       1.0  T
  82     -8.6899389  0.314006E-01  0.332E+00    0.29       1.0  T
  83     -8.6789349  0.110040E-01  0.340E+00    0.29       1.0  T
  84     -8.6638252  0.151097E-01  0.346E+00    0.29       1.0  T
  85     -8.6510554  0.127698E-01  0.350E+00    0.29       1.0  T
  86     -8.6595444 -0.848902E-02  0.350E+00    0.29       1.0  T
  87     -8.6759079 -0.163635E-01  0.351E+00    0.29       1.0  T
  88     -8.6815212 -0.561323E-02  0.349E+00    0.29       1.0  T
  89     -8.6794409  0.208031E-02  0.347E+00    0.29       1.0  T
  90     -8.6771777  0.226312E-02  0.349E+00    0.29       1.0  T
  91     -8.6419405  0.352372E-01  0.353E+00    0.29       1.0  T
  92     -8.6455231 -0.358253E-02  0.369E+00    0.29       1.0  T
  93     -8.6425489  0.297411E-02  0.374E+00    0.29       1.0  T
  94     -8.6424548  0.941695E-04  0.373E+00    0.29       1.0  T
  95     -8.6522116 -0.975678E-02  0.371E+00    0.29       1.0  T
  96     -8.6526504 -0.438846E-03  0.371E+00    0.29       1.0  T
  97     -8.6627710 -0.101206E-01  0.379E+00    0.29       1.0  T
  98     -8.6602628  0.250822E-02  0.385E+00    0.29       1.0  T
  99     -8.6639862 -0.372341E-02  0.395E+00    0.29       1.0  T
 100     -8.6652991 -0.131291E-02  0.401E+00    0.28       1.0  T
 101     -8.6662294 -0.930321E-03  0.403E+00    0.28       1.0  T
 102     -8.6655481  0.681349E-03  0.400E+00    0.29       1.0  T
 103     -8.6644567  0.109142E-02  0.394E+00    0.29       1.0  T
 104     -8.6643866  0.700639E-04  0.388E+00    0.29       1.0  T
 105     -8.6652228 -0.836234E-03  0.382E+00    0.29       1.0  T
 106     -8.6671306 -0.190776E-02  0.376E+00    0.29       1.0  T
 107     -8.6706488 -0.351819E-02  0.369E+00    0.29       1.0  T
 108     -8.6776405 -0.699173E-02  0.357E+00    0.29       1.0  T
 109     -8.6894759 -0.118353E-01  0.341E+00    0.29       1.0  T
 110     -8.7059583 -0.164824E-01  0.320E+00    0.29       1.0  T
 111     -8.7256743 -0.197160E-01  0.298E+00    0.29       1.0  T
 112     -8.7465016 -0.208273E-01  0.277E+00    0.29       1.0  T
 113     -8.7655077 -0.190062E-01  0.259E+00    0.29       1.0  T
 114     -8.7801481 -0.146404E-01  0.244E+00    0.30       1.0  T
 115     -8.7896680 -0.951992E-02  0.234E+00    0.30       1.0  T
 116     -8.7944151 -0.474706E-02  0.225E+00    0.30       1.0  T
 117     -8.7944851 -0.700179E-04  0.220E+00    0.30       1.0  T
 118     -8.7913399  0.314520E-02  0.216E+00    0.30       1.0  T
 119     -8.7894856  0.185428E-02  0.211E+00    0.30       1.0  T
 120     -8.7947543 -0.526870E-02  0.204E+00    0.31       1.0  T
 121     -8.8038007 -0.904636E-02  0.198E+00    0.31       1.0  T
 122     -8.8093987 -0.559803E-02  0.195E+00    0.31       1.0  T
 123     -8.8123720 -0.297330E-02  0.193E+00    0.31       1.0  T
 124     -8.8214464 -0.907439E-02  0.187E+00    0.31       1.0  T
 125     -8.8445977 -0.231513E-01  0.179E+00    0.30       1.0  T
 126     -8.8480577 -0.346009E-02  0.179E+00    0.30       1.0  T
 127     -8.8428409  0.521683E-02  0.181E+00    0.30       1.0  T
 128     -8.8470505 -0.420957E-02  0.180E+00    0.30       1.0  T
 129     -8.8655833 -0.185328E-01  0.177E+00    0.29       1.0  T
 130     -8.8650502  0.533137E-03  0.180E+00    0.29       1.0  T
 131     -8.8635833  0.146686E-02  0.182E+00    0.29       1.0  T
 132     -8.8804462 -0.168629E-01  0.183E+00    0.27       1.0  T
 133     -8.8817529 -0.130671E-02  0.185E+00    0.27       1.0  T
 134     -8.8824468 -0.693895E-03  0.185E+00    0.27       1.0  T
 135     -8.8934468 -0.109999E-01  0.187E+00    0.26       1.0  T
 136     -8.8928780  0.568804E-03  0.186E+00    0.26       1.0  T
 137     -8.8917290  0.114895E-02  0.182E+00    0.27       1.0  T
 138     -8.9011202 -0.939117E-02  0.182E+00    0.26       1.0  T
 139     -8.9013415 -0.221290E-03  0.180E+00    0.26       1.0  T
 140     -8.9021957 -0.854165E-03  0.179E+00    0.27       1.0  T
 141     -8.9073188 -0.512314E-02  0.182E+00    0.26       1.0  T
 142     -8.9075089 -0.190115E-03  0.183E+00    0.26       1.0  T
 143     -8.9068068  0.702103E-03  0.182E+00    0.26       1.0  T
 144     -8.9072825 -0.475637E-03  0.181E+00    0.26       1.0  T
 145     -8.9088586 -0.157617E-02  0.180E+00    0.26       1.0  T
 146     -8.9076141  0.124449E-02  0.177E+00    0.26       1.0  T
 147     -8.9114123 -0.379816E-02  0.174E+00    0.26       1.0  T
 148     -8.9125449 -0.113261E-02  0.173E+00    0.26       1.0  T
 149     -8.9120477  0.497178E-03  0.171E+00    0.26       1.0  T
 150     -8.9119718  0.759419E-04  0.166E+00    0.27       1.0  T
 151     -8.9146756 -0.270382E-02  0.159E+00    0.27       1.0  T
 152     -8.9175846 -0.290900E-02  0.156E+00    0.27       1.0  T
 153     -8.9188262 -0.124162E-02  0.154E+00    0.27       1.0  T
 154     -8.9189833 -0.157061E-03  0.154E+00    0.27       1.0  T
 155     -8.9192039 -0.220608E-03  0.152E+00    0.27       1.0  T
 156     -8.9202810 -0.107714E-02  0.151E+00    0.27       1.0  T
 157     -8.9207279 -0.446899E-03  0.151E+00    0.27       1.0  T
 158     -8.9204175  0.310399E-03  0.152E+00    0.27       1.0  T
 159     -8.9203676  0.499766E-04  0.152E+00    0.27       1.0  T
 160     -8.9218137 -0.144617E-02  0.152E+00    0.27       1.0  T
 161     -8.9224080 -0.594217E-03  0.152E+00    0.27       1.0  T
 162     -8.9220440  0.363940E-03  0.153E+00    0.27       1.0  T
 163     -8.9219745  0.695234E-04  0.151E+00    0.27       1.0  T
 164     -8.9250999 -0.312537E-02  0.152E+00    0.26       1.0  T
 165     -8.9277174 -0.261749E-02  0.152E+00    0.26       1.0  T
 166     -8.9280803 -0.362932E-03  0.151E+00    0.26       1.0  T
 167     -8.9294014 -0.132113E-02  0.138E+00    0.27       1.0  T
 168     -8.9376890 -0.828763E-02  0.132E+00    0.26       1.0  T
 169     -8.9463143 -0.862528E-02  0.130E+00    0.26       1.0  T
 170     -8.9501926 -0.387829E-02  0.128E+00    0.26       1.0  T
 171     -8.9491920  0.100065E-02  0.106E+00    0.26       1.0  T
 172     -8.9429562  0.623572E-02  0.731E-01    0.28       1.0  T
 173     -8.9471525 -0.419623E-02  0.687E-01    0.27       1.0  T
 174     -8.9523608 -0.520833E-02  0.922E-01    0.26       1.0  T
 175     -8.9529701 -0.609326E-03  0.103E+00    0.26       1.0  T
 176     -8.9517800  0.119015E-02  0.770E-01    0.27       1.0  T
 177     -8.9497481  0.203187E-02  0.529E-01    0.28       1.0  T
 178     -8.9528279 -0.307981E-02  0.698E-01    0.27       1.0  T
 179     -8.9532430 -0.415115E-03  0.904E-01    0.27       1.0  T
 180     -8.9529321  0.310893E-03  0.685E-01    0.27       1.0  T
 181     -8.9512391  0.169306E-02  0.396E-01    0.28       1.0  T
 182     -8.9531358 -0.189675E-02  0.549E-01    0.27       1.0  T
 183     -8.9531659 -0.301117E-04  0.797E-01    0.27       1.0  T
 184     -8.9532517 -0.857406E-04  0.596E-01    0.27       1.0  T
 185     -8.9520002  0.125148E-02  0.293E-01    0.28       1.0  T
 186     -8.9532348 -0.123462E-02  0.412E-01    0.28       1.0  T
 187     -8.9531443  0.904968E-04  0.655E-01    0.27       1.0  T
 188     -8.9533207 -0.176403E-03  0.498E-01    0.28       1.0  T
 189     -8.9527280  0.592695E-03  0.231E-01    0.28       1.0  T
 190     -8.9532933 -0.565245E-03  0.317E-01    0.28       1.0  T
 191     -8.9532512  0.420457E-04  0.481E-01    0.28       1.0  T
 192     -8.9533370 -0.857531E-04  0.369E-01    0.28       1.0  T
 193     -8.9531759  0.161049E-03  0.204E-01    0.28       1.0  T
 194     -8.9533379 -0.161958E-03  0.264E-01    0.28       1.0  T
 195     -8.9533222  0.157378E-04  0.333E-01    0.28       1.0  T
 196     -8.9533456 -0.234291E-04  0.259E-01    0.28       1.0  T
 197     -8.9533206  0.249483E-04  0.184E-01    0.28       1.0  T
 198     -8.9533496 -0.289882E-04  0.213E-01    0.28       1.0  T
 199     -8.9533443  0.537299E-05  0.226E-01    0.28       1.0  T
 200     -8.9533490 -0.476804E-05  0.160E-01    0.28       1.0  T
 201     -8.9533433  0.570751E-05  0.116E-01    0.28       1.0  T
 202     -8.9533537 -0.103461E-04  0.126E-01    0.28       1.0  T
 203     -8.9533530  0.638762E-06  0.115E-01    0.28       1.0  T
 204     -8.9533474  0.563634E-05  0.385E-02    0.28       1.0  T
 205     -8.9533520 -0.456443E-05  0.213E-02    0.29       1.7  T
 206     -8.9533540 -0.202382E-05  0.364E-02    0.29       1.0  T
 207     -8.9533557 -0.170712E-05  0.156E-02    0.29       2.3  T
 208     -8.9533549  0.817630E-06  0.991E-03    0.29       3.6  T
 209     -8.9533559 -0.995549E-06  0.112E-03    0.29      31.6  T
 210     -8.9533558  0.555344E-07  0.415E-03    0.29       8.5  T
 211     -8.9533559 -0.445632E-07  0.122E-03    0.29      29.1  T
 212     -8.9533559 -0.162678E-07  0.187E-04    0.29     188.8  T
 213     -8.9533559  0.179217E-09  0.321E-04    0.29     110.3  T

   *** convergence criteria satisfied after 213 iterations ***

         #    Occupation            Energy/Eh            Energy/eV
      -------------------------------------------------------------
         1        2.0000           -0.6182809             -16.8243
       ...           ...                  ...                  ...
         4        2.0000           -0.4525636             -12.3149
         5        2.0000           -0.3585264              -9.7560
         6        2.0000           -0.3307488              -9.0001
         7        2.0000           -0.3103359              -8.4447
         8        2.0000           -0.3055263              -8.3138
         9        2.0000           -0.2786699              -7.5830
        10        1.9920           -0.2510291              -6.8308 (HOMO)
        11        0.0079           -0.2405265              -6.5451 (LUMO)
        12        0.0001           -0.2362481              -6.4286
        13                         -0.2007156              -5.4617
        14                         -0.1906011              -5.1865
        15                         -0.1599422              -4.3522
       ...                                ...                  ...
        23                          0.1583317               4.3084
      -------------------------------------------------------------
                  HL-Gap            0.0105026 Eh            0.2858 eV
             Fermi-level           -0.2457830 Eh           -6.6881 eV

 SCC (total)                   0 d,  0 h,  0 min,  0.146 sec
 SCC setup                      ...        0 min,  0.000 sec (  0.047%)
 Dispersion                     ...        0 min,  0.000 sec (  0.093%)
 classical contributions        ...        0 min,  0.000 sec (  0.051%)
 integral evaluation            ...        0 min,  0.000 sec (  0.098%)
 iterations                     ...        0 min,  0.145 sec ( 99.327%)
 molecular gradient             ...        0 min,  0.001 sec (  0.354%)
 printout                       ...        0 min,  0.000 sec (  0.022%)

         :::::::::::::::::::::::::::::::::::::::::::::::::::::
         ::                     SUMMARY                     ::
         :::::::::::::::::::::::::::::::::::::::::::::::::::::
         :: total energy              -8.911702927850 Eh    ::
         :: gradient norm              0.258205306135 Eh/a0 ::
         :: HOMO-LUMO gap              0.285791139955 eV    ::
         ::.................................................::
         :: SCC energy                -8.953355868184 Eh    ::
         :: -> isotropic ES           -0.043107773391 Eh    ::
         :: -> anisotropic ES          0.010292710867 Eh    ::
         :: -> anisotropic XC         -0.016930328711 Eh    ::
         :: -> dispersion             -0.005812950951 Eh    ::
         :: repulsion energy           0.041648770449 Eh    ::
         :: add. restraining           0.000000000000 Eh    ::
         :: total charge              -0.000000000914 e     ::
         :::::::::::::::::::::::::::::::::::::::::::::::::::::

      ----------------------------------------------------------- 
     |                   =====================                   |
     |                        A N C O P T                        |
     |                   =====================                   |
     |               Approximate Normal Coordinate               |
     |                Rational Function Optimizer                |
      ----------------------------------------------------------- 

          ...................................................
          :                      SETUP                      :
          :.................................................:
          :   optimization level            normal          :
          :   max. optcycles                   200          :
          :   ANC micro-cycles                  20          :
          :   degrees of freedom                18          :
          :.................................................:
          :   RF solver                   davidson          :
          :   write xtbopt.log                true          :
          :   linear?                        false          :
          :   energy convergence         0.5000000E-05 Eh   :
          :   grad. convergence          0.1000000E-02 Eh/α :
          :   maximium RF displ.         1.0000000          :
          :   Hlow (freq-cutoff)         0.1000000E-01      :
          :   Hmax (freq-cutoff)         5.0000000          :
          :   S6 in model hess.         20.0000000          :
          ...................................................

generating ANC from model Hessian ...
Using Lindh-Hessian (1995)
 Shifting diagonal of input Hessian by    1.0636362343492363E-002
 Lowest  eigenvalues of input Hessian
    0.010000    0.000000    0.000000    0.000000    0.000000    0.000000
    0.000000    0.011283    0.011597    0.014228    0.015367    0.022978
    0.030662    0.035500    0.042147    0.056330    0.121687    0.170990
 Highest eigenvalues
    0.189778    0.231181    0.257749    0.282907    0.301898    0.437345


........................................................................
.............................. CYCLE    1 ..............................
........................................................................
   1     -8.9533559 -0.895336E+01  0.341E-04    0.29       0.0  T
   2     -8.9533557  0.180413E-06  0.544E-03    0.29       6.5  T
   3     -8.9533559 -0.166751E-06  0.158E-03    0.29      22.4  T
   4     -8.9533559 -0.832829E-08  0.102E-03    0.29      34.7  T
   5     -8.9533559 -0.433435E-08  0.501E-04    0.29      70.5  T
   6     -8.9533559 -0.270564E-09  0.441E-04    0.29      80.2  T
     SCC iter.                  ...        0 min,  0.001 sec
     gradient                   ...        0 min,  0.000 sec
 * total energy  :    -8.9117029 Eh     change        0.7679954E-09 Eh
   gradient norm :     0.2578157 Eh/α   predicted     0.0000000E+00 (-100.00%)
   displ. norm   :     0.7682899 α      lambda       -0.1855817E+00
   maximum displ.:     0.4097334 α      in ANC's #10, #17, #6, ...

........................................................................
.............................. CYCLE    2 ..............................
........................................................................
   1     -8.9928102 -0.899281E+01  0.606E+00    0.50       0.0  T
   2      7.9057550  0.168986E+02  0.209E+01    0.67       1.0  T
   3     -8.6795107 -0.165853E+02  0.599E+00    0.29       1.0  T
   4     -7.7585341  0.920977E+00  0.144E+01    0.27       1.0  T
   5     -8.9502656 -0.119173E+01  0.420E+00    0.54       1.0  T
   6     -8.9646236 -0.143581E-01  0.284E+00    0.36       1.0  T
   7     -8.8703798  0.942439E-01  0.381E+00    0.56       1.0  T
   8     -8.9367657 -0.663860E-01  0.288E+00    0.52       1.0  T
   9     -8.9961651 -0.593994E-01  0.214E+00    0.48       1.0  T
  10     -9.0332625 -0.370974E-01  0.163E+00    0.45       1.0  T
  11     -9.0330936  0.168868E-03  0.161E+00    0.45       1.0  T
  12     -9.0627547 -0.296611E-01  0.140E+00    0.43       1.0  T
  13     -9.0663551 -0.360041E-02  0.137E+00    0.43       1.0  T
  14     -9.0664060 -0.508234E-04  0.136E+00    0.43       1.0  T
  15     -9.0762551 -0.984913E-02  0.127E+00    0.43       1.0  T
  16     -9.0904401 -0.141850E-01  0.153E+00    0.44       1.0  T
  17     -9.0905597 -0.119610E-03  0.153E+00    0.44       1.0  T
  18     -9.0915391 -0.979414E-03  0.174E+00    0.43       1.0  T
  19     -9.0920299 -0.490782E-03  0.171E+00    0.43       1.0  T
  20     -9.0921476 -0.117696E-03  0.138E+00    0.44       1.0  T
  21     -9.0919933  0.154316E-03  0.110E+00    0.45       1.0  T
  22     -9.0920689 -0.756258E-04  0.804E-01    0.45       1.0  T
  23     -9.0922568 -0.187963E-03  0.532E-01    0.45       1.0  T
  24     -9.0923583 -0.101475E-03  0.428E-01    0.45       1.0  T
  25     -9.0925760 -0.217710E-03  0.280E-01    0.45       1.0  T
  26     -9.0927019 -0.125915E-03  0.113E-01    0.44       1.0  T
  27     -9.0927178 -0.158976E-04  0.634E-02    0.44       1.0  T
  28     -9.0927324 -0.146001E-04  0.312E-02    0.44       1.1  T
  29     -9.0927333 -0.831767E-06  0.157E-02    0.44       2.3  T
  30     -9.0927336 -0.359062E-06  0.111E-02    0.44       3.2  T
  31     -9.0927336 -0.402352E-08  0.105E-02    0.44       3.4  T
  32     -9.0927336 -0.129936E-07  0.362E-03    0.44       9.8  T
  33     -9.0927337 -0.110076E-07  0.102E-03    0.44      34.7  T
  34     -9.0927337 -0.782797E-08  0.233E-04    0.44     152.0  T
  35     -9.0927337  0.791829E-10  0.308E-04    0.44     114.6  T
     SCC iter.                  ...        0 min,  0.005 sec
     gradient                   ...        0 min,  0.001 sec
 * total energy  :    -9.0639955 Eh     change       -0.1522926E+00 Eh
   gradient norm :     0.2325136 Eh/α   predicted    -0.1475624E+00 (  -3.11%)
   displ. norm   :     0.9415016 α      lambda       -0.2137406E+00
   maximum displ.:     0.4633482 α      in ANC's #17, #15, #16, ...

........................................................................
.............................. CYCLE    3 ..............................
........................................................................
   1     -9.2825996 -0.928260E+01  0.653E+00    0.40       0.0  T
   2      6.9982350  0.162808E+02  0.209E+01    0.74       1.0  T
   3     -9.0436162 -0.160419E+02  0.484E+00    1.55       1.0  T
   4      1.7536399  0.107973E+02  0.171E+01    0.20       1.0  T
   5     -8.3101235 -0.100638E+02  0.127E+01    0.08       1.0  T
   6     -9.2596199 -0.949496E+00  0.300E+00    0.56       1.0  T
   7     -9.1720434  0.875764E-01  0.232E+00    0.78       1.0  T
   8     -9.1924427 -0.203993E-01  0.220E+00    0.96       1.0  T
   9     -9.1947192 -0.227651E-02  0.202E+00    0.97       1.0  T
  10     -9.2343585 -0.396394E-01  0.183E+00    0.76       1.0  T
  11     -9.2422754 -0.791687E-02  0.169E+00    0.75       1.0  T
  12     -9.2559443 -0.136689E-01  0.157E+00    0.70       1.0  T
  13     -9.2624251 -0.648079E-02  0.151E+00    0.68       1.0  T
  14     -9.2859173 -0.234922E-01  0.138E+00    0.60       1.0  T
  15     -9.2856364  0.280941E-03  0.139E+00    0.60       1.0  T
  16     -9.3332302 -0.475938E-01  0.203E+00    0.31       1.0  T
  17     -9.3312557  0.197450E-02  0.224E+00    0.30       1.0  T
  18     -9.3261571  0.509856E-02  0.228E+00    0.28       1.0  T
  19     -9.3291742 -0.301701E-02  0.214E+00    0.29       1.0  T
  20     -9.3224601  0.671401E-02  0.213E+00    0.27       1.0  T
  21     -9.3135810  0.887912E-02  0.205E+00    0.25       1.0  T
  22     -9.3362640 -0.226830E-01  0.460E-01    0.34       1.0  T
  23     -9.3326573  0.360670E-02  0.921E-01    0.29       1.0  T
  24     -9.3366660 -0.400868E-02  0.410E-01    0.31       1.0  T
  25     -9.3369326 -0.266622E-03  0.213E-01    0.32       1.0  T
  26     -9.3359987  0.933906E-03  0.486E-01    0.34       1.0  T
  27     -9.3357111  0.287659E-03  0.543E-01    0.34       1.0  T
  28     -9.3363915 -0.680433E-03  0.420E-01    0.33       1.0  T
  29     -9.3365273 -0.135847E-03  0.378E-01    0.33       1.0  T
  30     -9.3368470 -0.319675E-03  0.280E-01    0.32       1.0  T
  31     -9.3369071 -0.600738E-04  0.234E-01    0.32       1.0  T
  32     -9.3369776 -0.704747E-04  0.148E-01    0.31       1.0  T
  33     -9.3369670  0.105688E-04  0.114E-01    0.31       1.0  T
  34     -9.3369445  0.225058E-04  0.914E-02    0.31       1.0  T
  35     -9.3369507 -0.624810E-05  0.744E-02    0.31       1.0  T
  36     -9.3369634 -0.126095E-04  0.527E-02    0.32       1.0  T
  37     -9.3369764 -0.130786E-04  0.318E-02    0.32       1.1  T
  38     -9.3369805 -0.401738E-05  0.183E-02    0.32       1.9  T
  39     -9.3369810 -0.499620E-06  0.940E-03    0.32       3.8  T
  40     -9.3369810 -0.131552E-07  0.582E-03    0.32       6.1  T
  41     -9.3369811 -0.141288E-06  0.138E-03    0.32      25.6  T
  42     -9.3369811 -0.504715E-08  0.214E-04    0.32     165.0  T
  43     -9.3369811 -0.985946E-09  0.118E-04    0.32     300.0  T
     SCC iter.                  ...        0 min,  0.007 sec
     gradient                   ...        0 min,  0.000 sec
 * total energy  :    -9.2304593 Eh     change       -0.1664638E+00 Eh
   gradient norm :     0.1423301 Eh/α   predicted    -0.2016028E+00 (  21.11%)
   displ. norm   :     0.8290119 α      lambda       -0.1021570E+00
   maximum displ.:     0.4029661 α      in ANC's #1, #7, #9, ...

........................................................................
.............................. CYCLE    4 ..............................
........................................................................
   1     -9.4115080 -0.941151E+01  0.486E+00    0.36       0.0  T
   2     -9.0097265  0.401782E+00  0.573E+00    2.39       1.0  T
   3     -6.8008147  0.220891E+01  0.136E+01    0.35       1.0  T
   4     -9.4616929 -0.266088E+01  0.238E+00    0.48       1.0  T
   5     -9.4196598  0.420331E-01  0.213E+00    0.74       1.0  T
   6     -9.4055866  0.140732E-01  0.221E+00    0.83       1.0  T
   7     -9.4193799 -0.137933E-01  0.197E+00    0.78       1.0  T
   8     -9.4437599 -0.243800E-01  0.146E+00    0.65       1.0  T
   9     -9.4654982 -0.217383E-01  0.133E+00    0.56       1.0  T
  10     -9.4647404  0.757848E-03  0.125E+00    0.57       1.0  T
  11     -9.4653532 -0.612813E-03  0.121E+00    0.57       1.0  T
  12     -9.4615618  0.379133E-02  0.107E+00    0.60       1.0  T
  13     -9.4614990  0.628504E-04  0.102E+00    0.60       1.0  T
  14     -9.4684721 -0.697308E-02  0.854E-01    0.57       1.0  T
  15     -9.4687222 -0.250141E-03  0.809E-01    0.57       1.0  T
  16     -9.4702935 -0.157128E-02  0.501E-01    0.58       1.0  T
  17     -9.4711100 -0.816472E-03  0.319E-01    0.58       1.0  T
  18     -9.4714884 -0.378458E-03  0.179E-01    0.58       1.0  T
  19     -9.4715254 -0.369825E-04  0.840E-02    0.58       1.0  T
  20     -9.4715265 -0.108861E-05  0.215E-02    0.58       1.6  T
  21     -9.4715267 -0.196768E-06  0.838E-03    0.59       4.2  T
  22     -9.4715269 -0.206540E-06  0.746E-03    0.59       4.7  T
  23     -9.4715269 -0.701001E-08  0.325E-03    0.59      10.9  T
  24     -9.4715269 -0.353412E-08  0.512E-04    0.59      69.0  T
  25     -9.4715269 -0.722308E-09  0.261E-04    0.59     135.3  T
     SCC iter.                  ...        0 min,  0.003 sec
     gradient                   ...        0 min,  0.000 sec
 * total energy  :    -9.3198164 Eh     change       -0.8935710E-01 Eh
   gradient norm :     0.1516899 Eh/α   predicted    -0.8618276E-01 (  -3.55%)
   displ. norm   :     0.8858806 α      lambda       -0.1157668E+00
   maximum displ.:     0.4165228 α      in ANC's #7, #15, #9, ...

........................................................................
.............................. CYCLE    5 ..............................
........................................................................
   1     -9.4325208 -0.943252E+01  0.660E+00    0.75       0.0  T
   2     -8.5335129  0.899008E+00  0.887E+00    1.50       1.0  T
   3     -9.1239291 -0.590416E+00  0.673E+00    0.66       1.0  T
   4     -9.2699255 -0.145996E+00  0.561E+00    0.95       1.0  T
   5     -9.4665197 -0.196594E+00  0.318E+00    1.03       1.0  T
   6     -9.5418739 -0.753541E-01  0.251E+00    0.90       1.0  T
   7     -9.5593281 -0.174542E-01  0.208E+00    0.89       1.0  T
   8     -9.5693223 -0.999425E-02  0.147E+00    0.88       1.0  T
   9     -9.5774665 -0.814414E-02  0.749E-01    0.88       1.0  T
  10     -9.5761474  0.131904E-02  0.710E-01    0.90       1.0  T
  11     -9.5761393  0.814743E-05  0.631E-01    0.90       1.0  T
  12     -9.5794595 -0.332022E-02  0.216E-01    0.88       1.0  T
  13     -9.5794553  0.418770E-05  0.245E-01    0.87       1.0  T
  14     -9.5794921 -0.367645E-04  0.216E-01    0.88       1.0  T
  15     -9.5795313 -0.391694E-04  0.135E-02    0.88       2.6  T
  16     -9.5795311  0.208964E-06  0.124E-02    0.88       2.8  T
  17     -9.5795311 -0.888677E-07  0.159E-02    0.88       2.2  T
  18     -9.5795318 -0.691487E-06  0.440E-03    0.88       8.0  T
  19     -9.5795318 -0.543491E-08  0.109E-03    0.88      32.6  T
  20     -9.5795318 -0.670487E-08  0.356E-04    0.88      99.3  T
  21     -9.5795318  0.156959E-10  0.161E-04    0.88     220.2  T
     SCC iter.                  ...        0 min,  0.003 sec
     gradient                   ...        0 min,  0.000 sec
 * total energy  :    -9.3785034 Eh     change       -0.5868708E-01 Eh
   gradient norm :     0.2051886 Eh/α   predicted    -0.1033094E+00 (  76.03%)
   displ. norm   :     0.6397260 α      lambda       -0.8851077E-01
   maximum displ.:     0.2803254 α      in ANC's #7, #1, #15, ...

........................................................................
.............................. CYCLE    6 ..............................
........................................................................
   1     -9.5516973 -0.955170E+01  0.365E+00    1.20       0.0  T
   2     -7.4076116  0.214409E+01  0.101E+01    0.55       1.0  T
   3     -9.4316983 -0.202409E+01  0.384E+00    1.28       1.0  T
   4     -9.5415047 -0.109806E+00  0.207E+00    1.15       1.0  T
   5     -9.5635001 -0.219953E-01  0.166E+00    1.07       1.0  T
   6     -9.5743540 -0.108540E-01  0.116E+00    1.08       1.0  T
   7     -9.5743462  0.782036E-05  0.116E+00    1.08       1.0  T
   8     -9.5833332 -0.898695E-02  0.754E-01    1.06       1.0  T
   9     -9.5866622 -0.332907E-02  0.531E-01    1.05       1.0  T
  10     -9.5877895 -0.112725E-02  0.383E-01    1.05       1.0  T
  11     -9.5886132 -0.823721E-03  0.635E-02    1.05       1.0  T
  12     -9.5883446  0.268601E-03  0.126E-01    1.05       1.0  T
  13     -9.5885535 -0.208908E-03  0.778E-02    1.05       1.0  T
  14     -9.5886130 -0.595275E-04  0.350E-02    1.04       1.0  T
  15     -9.5886147 -0.165285E-05  0.256E-02    1.04       1.4  T
  16     -9.5886181 -0.344204E-05  0.206E-03    1.04      17.2  T
  17     -9.5886182 -0.532466E-07  0.840E-04    1.04      42.1  T
  18     -9.5886182 -0.841991E-08  0.523E-04    1.04      67.7  T
     SCC iter.                  ...        0 min,  0.002 sec
     gradient                   ...        0 min,  0.000 sec
 * total energy  :    -9.3968390 Eh     change       -0.1833558E-01 Eh
   gradient norm :     0.2252955 Eh/α   predicted    -0.6236685E-01 ( 240.14%)
   displ. norm   :     0.6834568 α      lambda       -0.1136214E+00
   maximum displ.:     0.2787781 α      in ANC's #7, #6, #15, ...

........................................................................
.............................. CYCLE    7 ..............................
........................................................................
   1     -9.6107795 -0.961078E+01  0.342E+00    0.80       0.0  T
   2     -9.2991651  0.311614E+00  0.720E+00    0.31       1.0  T
   3     -9.6017504 -0.302585E+00  0.279E+00    0.60       1.0  T
   4     -8.5156070  0.108614E+01  0.114E+01    0.27       1.0  T
   5     -9.5171257 -0.100152E+01  0.391E+00    0.43       1.0  T
   6     -9.5623934 -0.452677E-01  0.255E+00    0.53       1.0  T
   7     -9.5955281 -0.331347E-01  0.245E+00    1.04       1.0  T
   8     -9.6239913 -0.284632E-01  0.118E+00    0.83       1.0  T
   9     -9.6233292  0.662105E-03  0.110E+00    0.84       1.0  T
  10     -9.6233119  0.172777E-04  0.697E-01    0.82       1.0  T
  11     -9.6250203 -0.170842E-02  0.371E-01    0.70       1.0  T
  12     -9.6255003 -0.479985E-03  0.279E-01    0.72       1.0  T
  13     -9.6256055 -0.105226E-03  0.200E-01    0.73       1.0  T
  14     -9.6257713 -0.165722E-03  0.180E-02    0.75       2.0  T
  15     -9.6257676  0.362317E-05  0.273E-02    0.76       1.3  T
  16     -9.6257693 -0.167795E-05  0.225E-02    0.76       1.6  T
  17     -9.6257704 -0.108387E-05  0.194E-02    0.76       1.8  T
  18     -9.6257708 -0.425113E-06  0.177E-02    0.76       2.0  T
  19     -9.6257713 -0.449064E-06  0.140E-02    0.76       2.5  T
  20     -9.6257717 -0.394088E-06  0.913E-03    0.76       3.9  T
  21     -9.6257719 -0.254950E-06  0.385E-03    0.76       9.2  T
  22     -9.6257720 -0.518228E-07  0.760E-04    0.76      46.5  T
  23     -9.6257720 -0.187541E-08  0.230E-04    0.76     154.0  T
     SCC iter.                  ...        0 min,  0.004 sec
     gradient                   ...        0 min,  0.001 sec
 * total energy  :    -9.3990299 Eh     change       -0.2190873E-02 Eh
   gradient norm :     0.2914662 Eh/α   predicted    -0.8334773E-01 (3704.32%)
   displ. norm   :     0.4763378 α      lambda       -0.1027776E+00
   maximum displ.:     0.2206555 α      in ANC's #17, #13, #6, ...

........................................................................
.............................. CYCLE    8 ..............................
........................................................................
   1     -9.5812743 -0.958127E+01  0.387E+00    0.63       0.0  T
   2     -9.1964470  0.384827E+00  0.585E+00    1.20       1.0  T
   3     -9.2633875 -0.669405E-01  0.689E+00    0.52       1.0  T
   4     -9.3935029 -0.130115E+00  0.563E+00    0.55       1.0  T
   5     -9.5453139 -0.151811E+00  0.321E+00    0.61       1.0  T
   6     -9.6157544 -0.704405E-01  0.122E+00    0.72       1.0  T
   7     -9.6320271 -0.162727E-01  0.120E+00    0.81       1.0  T
   8     -9.6302971  0.172999E-02  0.126E+00    0.83       1.0  T
   9     -9.6297356  0.561573E-03  0.132E+00    0.83       1.0  T
  10     -9.6328345 -0.309896E-02  0.959E-01    0.74       1.0  T
  11     -9.6342566 -0.142209E-02  0.516E-01    0.77       1.0  T
  12     -9.6340318  0.224786E-03  0.370E-01    0.79       1.0  T
  13     -9.6334661  0.565731E-03  0.441E-01    0.81       1.0  T
  14     -9.6336757 -0.209565E-03  0.357E-01    0.81       1.0  T
  15     -9.6339702 -0.294527E-03  0.262E-01    0.81       1.0  T
  16     -9.6340550 -0.848617E-04  0.219E-01    0.81       1.0  T
  17     -9.6342842 -0.229128E-03  0.647E-02    0.80       1.0  T
  18     -9.6342937 -0.951910E-05  0.407E-02    0.80       1.0  T
  19     -9.6343006 -0.692313E-05  0.969E-03    0.80       3.6  T
  20     -9.6343010 -0.365177E-06  0.175E-03    0.80      20.1  T
  21     -9.6343010 -0.105403E-07  0.271E-04    0.80     130.4  T
  22     -9.6343010 -0.484057E-11  0.213E-04    0.80     166.3  T
     SCC iter.                  ...        0 min,  0.003 sec
     gradient                   ...        0 min,  0.001 sec
 * total energy  :    -9.4405925 Eh     change       -0.4156258E-01 Eh
   gradient norm :     0.1384749 Eh/α   predicted    -0.6304876E-01 (  51.70%)
   displ. norm   :     0.6982831 α      lambda       -0.6775577E-01
   maximum displ.:     0.3592280 α      in ANC's #1, #7, #2, ...

........................................................................
.............................. CYCLE    9 ..............................
........................................................................
   1     -9.7078518 -0.970785E+01  0.340E+00    1.28       0.0  T
   2     -8.9779870  0.729865E+00  0.695E+00    0.69       1.0  T
   3     -9.4974777 -0.519491E+00  0.461E+00    1.60       1.0  T
   4     -9.6370896 -0.139612E+00  0.295E+00    1.42       1.0  T
   5     -9.6403537 -0.326407E-02  0.265E+00    1.17       1.0  T
   6     -9.6914774 -0.511237E-01  0.156E+00    1.24       1.0  T
   7     -9.7020412 -0.105639E-01  0.136E+00    1.21       1.0  T
   8     -9.7145768 -0.125356E-01  0.951E-01    1.16       1.0  T
   9     -9.7176802 -0.310340E-02  0.751E-01    1.15       1.0  T
  10     -9.7192505 -0.157030E-02  0.438E-01    1.15       1.0  T
  11     -9.7177137  0.153680E-02  0.532E-01    1.17       1.0  T
  12     -9.7203234 -0.260973E-02  0.272E-01    1.14       1.0  T
  13     -9.7208602 -0.536815E-03  0.105E-01    1.13       1.0  T
  14     -9.7208595  0.721563E-06  0.682E-02    1.13       1.0  T
  15     -9.7208636 -0.409050E-05  0.525E-03    1.13       6.7  T
  16     -9.7208633  0.321328E-06  0.700E-03    1.13       5.1  T
  17     -9.7208637 -0.420438E-06  0.224E-03    1.13      15.8  T
  18     -9.7208638 -0.383242E-07  0.506E-04    1.13      69.9  T
  19     -9.7208638 -0.161170E-08  0.535E-05    1.13     660.5  T
     SCC iter.                  ...        0 min,  0.002 sec
     gradient                   ...        0 min,  0.001 sec
 * total energy  :    -9.4779916 Eh     change       -0.3739913E-01 Eh
   gradient norm :     0.1995063 Eh/α   predicted    -0.5039672E-01 (  34.75%)
   displ. norm   :     0.6546551 α      lambda       -0.7184917E-01
   maximum displ.:     0.4145925 α      in ANC's #1, #15, #3, ...

........................................................................
.............................. CYCLE   10 ..............................
........................................................................
   1     -9.7978094 -0.979781E+01  0.432E+00    1.96       0.0  T
   2     -8.8764434  0.921366E+00  0.636E+00    0.88       1.0  T
   3     -9.4134712 -0.537028E+00  0.539E+00    3.07       1.0  T
   4     -9.6080341 -0.194563E+00  0.341E+00    2.71       1.0  T
   5     -9.7659410 -0.157907E+00  0.246E+00    1.84       1.0  T
   6     -9.7722620 -0.632100E-02  0.168E+00    2.11       1.0  T
   7     -9.7875434 -0.152814E-01  0.143E+00    2.03       1.0  T
   8     -9.7997993 -0.122559E-01  0.110E+00    1.97       1.0  T
   9     -9.8074977 -0.769838E-02  0.820E-01    1.91       1.0  T
  10     -9.8104661 -0.296838E-02  0.650E-01    1.89       1.0  T
  11     -9.8165220 -0.605594E-02  0.683E-02    1.77       1.0  T
  12     -9.8164035  0.118508E-03  0.109E-01    1.77       1.0  T
  13     -9.8165679 -0.164418E-03  0.188E-02    1.78       1.9  T
  14     -9.8165735 -0.556159E-05  0.195E-03    1.78      18.2  T
  15     -9.8165735 -0.277238E-07  0.380E-04    1.78      93.2  T
  16     -9.8165735  0.994946E-08  0.746E-04    1.78      47.4  T
     SCC iter.                  ...        0 min,  0.002 sec
     gradient                   ...        0 min,  0.000 sec
 * total energy  :    -9.4875596 Eh     change       -0.9568015E-02 Eh
   gradient norm :     0.3533122 Eh/α   predicted    -0.5132089E-01 ( 436.38%)
   displ. norm   :     0.5268538 α      lambda       -0.1038924E+00
   maximum displ.:     0.2465005 α      in ANC's #6, #8, #5, ...

........................................................................
.............................. CYCLE   11 ..............................
........................................................................
   1     -9.7242258 -0.972423E+01  0.178E+00    1.56       0.0  T
   2     -9.5277423  0.196483E+00  0.399E+00    1.04       1.0  T
   3     -9.7203595 -0.192617E+00  0.145E+00    1.64       1.0  T
   4     -9.3894335  0.330926E+00  0.394E+00    0.88       1.0  T
   5     -9.7388484 -0.349415E+00  0.414E-01    1.49       1.0  T
   6     -9.7368472  0.200121E-02  0.383E-01    1.55       1.0  T
   7     -9.7369159 -0.686588E-04  0.363E-01    1.55       1.0  T
   8     -9.7377085 -0.792623E-03  0.285E-01    1.54       1.0  T
   9     -9.7389277 -0.121923E-02  0.139E-01    1.50       1.0  T
  10     -9.7389787 -0.509627E-04  0.124E-01    1.50       1.0  T
  11     -9.7391403 -0.161596E-03  0.494E-02    1.49       1.0  T
  12     -9.7391687 -0.284254E-04  0.147E-02    1.48       2.4  T
  13     -9.7391707 -0.195444E-05  0.456E-03    1.48       7.8  T
  14     -9.7391710 -0.334395E-06  0.376E-04    1.48      94.1  T
  15     -9.7391710  0.801791E-09  0.313E-04    1.48     113.0  T
     SCC iter.                  ...        0 min,  0.002 sec
     gradient                   ...        0 min,  0.000 sec
 * total energy  :    -9.5190498 Eh     change       -0.3149024E-01 Eh
   gradient norm :     0.1356078 Eh/α   predicted    -0.6636517E-01 ( 110.75%)
   displ. norm   :     0.5622348 α      lambda       -0.4581090E-01
   maximum displ.:     0.3138759 α      in ANC's #4, #5, #12, ...

........................................................................
.............................. CYCLE   12 ..............................
........................................................................
   1     -9.7824527 -0.978245E+01  0.245E+00    1.39       0.0  T
   2     -9.7436419  0.388108E-01  0.221E+00    1.78       1.0  T
   3     -8.5310866  0.121256E+01  0.753E+00    0.71       1.0  T
   4     -9.7643484 -0.123326E+01  0.143E+00    1.48       1.0  T
   5     -9.7268577  0.374907E-01  0.152E+00    1.08       1.0  T
   6     -9.7792180 -0.523603E-01  0.550E-01    1.54       1.0  T
   7     -9.7805267 -0.130873E-02  0.500E-01    1.53       1.0  T
   8     -9.7814674 -0.940636E-03  0.429E-01    1.51       1.0  T
   9     -9.7838858 -0.241845E-02  0.260E-01    1.47       1.0  T
  10     -9.7842092 -0.323343E-03  0.204E-01    1.46       1.0  T
  11     -9.7843770 -0.167835E-03  0.120E-01    1.46       1.0  T
  12     -9.7844230 -0.459812E-04  0.919E-02    1.46       1.0  T
  13     -9.7845120 -0.890079E-04  0.285E-02    1.45       1.2  T
  14     -9.7845210 -0.906413E-05  0.969E-03    1.45       3.6  T
  15     -9.7845221 -0.101268E-05  0.848E-04    1.45      41.7  T
  16     -9.7845220  0.323488E-08  0.721E-04    1.45      49.1  T
  17     -9.7845221 -0.487064E-08  0.730E-05    1.45     484.4  T
     SCC iter.                  ...        0 min,  0.002 sec
     gradient                   ...        0 min,  0.001 sec
 * total energy  :    -9.5427041 Eh     change       -0.2365430E-01 Eh
   gradient norm :     0.1404365 Eh/α   predicted    -0.3014606E-01 (  27.44%)
   displ. norm   :     0.6368395 α      lambda       -0.4961699E-01
   maximum displ.:     0.3070939 α      in ANC's #16, #1, #17, ...

........................................................................
.............................. CYCLE   13 ..............................
........................................................................
   1     -9.8522842 -0.985228E+01  0.238E+00    1.88       0.0  T
   2     -9.8312641  0.210201E-01  0.163E+00    1.55       1.0  T
   3     -9.6041817  0.227082E+00  0.355E+00    3.19       1.0  T
   4     -9.7994055 -0.195224E+00  0.155E+00    2.32       1.0  T
   5     -9.8462726 -0.468671E-01  0.649E-01    1.97       1.0  T
   6     -9.8545074 -0.823477E-02  0.205E-01    1.78       1.0  T
   7     -9.8538627  0.644708E-03  0.223E-01    1.87       1.0  T
   8     -9.8544407 -0.578018E-03  0.134E-01    1.84       1.0  T
   9     -9.8546885 -0.247803E-03  0.540E-02    1.83       1.0  T
  10     -9.8546985 -0.100644E-04  0.437E-02    1.83       1.0  T
  11     -9.8547337 -0.351151E-04  0.131E-02    1.82       2.7  T
  12     -9.8547370 -0.330432E-05  0.341E-03    1.82      10.4  T
  13     -9.8547371 -0.185270E-06  0.123E-03    1.82      28.7  T
  14     -9.8547372 -0.276923E-07  0.189E-04    1.82     187.2  T
  15     -9.8547372 -0.699236E-09  0.609E-06    1.82    5810.2  T
     SCC iter.                  ...        0 min,  0.002 sec
     gradient                   ...        0 min,  0.000 sec
 * total energy  :    -9.5650715 Eh     change       -0.2236741E-01 Eh
   gradient norm :     0.0682200 Eh/α   predicted    -0.3486995E-01 (  55.90%)
   displ. norm   :     0.7479847 α      lambda       -0.2292810E-01
   maximum displ.:     0.4634905 α      in ANC's #1, #5, #2, ...

........................................................................
.............................. CYCLE   14 ..............................
........................................................................
   1     -9.7887928 -0.978879E+01  0.230E+00    1.82       0.0  T
   2     -9.7477480  0.410448E-01  0.205E+00    1.56       1.0  T
   3     -9.6308138  0.116934E+00  0.309E+00    2.71       1.0  T
   4     -9.7833096 -0.152496E+00  0.962E-01    1.68       1.0  T
   5     -9.7739384  0.937113E-02  0.806E-01    2.07       1.0  T
   6     -9.7909558 -0.170174E-01  0.295E-01    1.83       1.0  T
   7     -9.7901318  0.824073E-03  0.285E-01    1.86       1.0  T
   8     -9.7916287 -0.149693E-02  0.726E-02    1.78       1.0  T
   9     -9.7917064 -0.776586E-04  0.247E-02    1.79       1.4  T
  10     -9.7917145 -0.817899E-05  0.107E-02    1.80       3.3  T
  11     -9.7917151 -0.554981E-06  0.391E-03    1.80       9.1  T
  12     -9.7917153 -0.210054E-06  0.110E-03    1.80      32.2  T
  13     -9.7917153 -0.380457E-08  0.609E-04    1.80      58.1  T
  14     -9.7917153 -0.616979E-08  0.204E-04    1.80     173.6  T
     SCC iter.                  ...        0 min,  0.002 sec
     gradient                   ...        0 min,  0.000 sec
 * total energy  :    -9.5667464 Eh     change       -0.1674899E-02 Eh
   gradient norm :     0.0751272 Eh/α   predicted    -0.1787796E-01 ( 967.40%)
   displ. norm   :     0.3698433 α      lambda       -0.2202513E-01
   maximum displ.:     0.2198832 α      in ANC's #9, #1, #4, ...

........................................................................
.............................. CYCLE   15 ..............................
........................................................................
   1     -9.8289172 -0.982892E+01  0.161E+00    1.52       0.0  T
   2     -9.8185595  0.103577E-01  0.141E+00    1.69       1.0  T
   3     -9.7827215  0.358380E-01  0.144E+00    1.24       1.0  T
   4     -9.6915168  0.912047E-01  0.262E+00    2.39       1.0  T
   5     -9.8094655 -0.117949E+00  0.870E-01    1.86       1.0  T
   6     -9.8275778 -0.181124E-01  0.446E-01    1.65       1.0  T
   7     -9.8310749 -0.349706E-02  0.196E-01    1.60       1.0  T
   8     -9.8318007 -0.725793E-03  0.680E-02    1.56       1.0  T
   9     -9.8318026 -0.198029E-05  0.159E-02    1.56       2.2  T
  10     -9.8318020  0.595347E-06  0.132E-02    1.57       2.7  T
  11     -9.8318035 -0.146875E-05  0.168E-03    1.56      21.1  T
  12     -9.8318035 -0.225300E-07  0.649E-04    1.56      54.5  T
  13     -9.8318035  0.219213E-08  0.448E-04    1.56      78.8  T
     SCC iter.                  ...        0 min,  0.002 sec
     gradient                   ...        0 min,  0.000 sec
 * total energy  :    -9.5729891 Eh     change       -0.6242686E-02 Eh
   gradient norm :     0.1342469 Eh/α   predicted    -0.1251891E-01 ( 100.54%)
   displ. norm   :     0.3373989 α      lambda       -0.1964010E-01
   maximum displ.:     0.1842810 α      in ANC's #5, #10, #8, ...

........................................................................
.............................. CYCLE   16 ..............................
........................................................................
   1     -9.8698498 -0.986985E+01  0.141E+00    1.75       0.0  T
   2     -9.8292238  0.406260E-01  0.144E+00    1.34       1.0  T
   3     -9.7793566  0.498672E-01  0.201E+00    2.48       1.0  T
   4     -9.8460530 -0.666963E-01  0.102E+00    2.02       1.0  T
   5     -9.8678291 -0.217761E-01  0.475E-01    1.78       1.0  T
   6     -9.8716216 -0.379255E-02  0.176E-01    1.70       1.0  T
   7     -9.8717353 -0.113692E-03  0.155E-01    1.69       1.0  T
   8     -9.8716930  0.422986E-04  0.727E-02    1.71       1.0  T
   9     -9.8717545 -0.614234E-04  0.296E-02    1.70       1.2  T
  10     -9.8717531  0.139027E-05  0.251E-02    1.70       1.4  T
  11     -9.8717673 -0.142407E-04  0.220E-03    1.69      16.1  T
  12     -9.8717674 -0.754173E-07  0.559E-04    1.69      63.2  T
  13     -9.8717674 -0.888749E-09  0.272E-04    1.69     130.1  T
     SCC iter.                  ...        0 min,  0.002 sec
     gradient                   ...        0 min,  0.000 sec
 * total energy  :    -9.5720861 Eh     change        0.9029957E-03 Eh
   gradient norm :     0.1154199 Eh/α   predicted    -0.1093794E-01 (*******%)
   displ. norm   :     0.3486850 α      lambda       -0.2189199E-01
   maximum displ.:     0.2176983 α      in ANC's #8, #1, #10, ...

........................................................................
.............................. CYCLE   17 ..............................
........................................................................
   1     -9.8679090 -0.986791E+01  0.103E+00    1.79       0.0  T
   2     -9.8535678  0.143411E-01  0.114E+00    2.03       1.0  T
   3     -9.8278103  0.257576E-01  0.136E+00    1.51       1.0  T
   4     -9.8316655 -0.385522E-02  0.120E+00    2.28       1.0  T
   5     -9.8659130 -0.342475E-01  0.345E-01    1.92       1.0  T
   6     -9.8692241 -0.331102E-02  0.994E-02    1.83       1.0  T
   7     -9.8693022 -0.781458E-04  0.759E-02    1.82       1.0  T
   8     -9.8693413 -0.391083E-04  0.165E-02    1.81       2.1  T
   9     -9.8693426 -0.127811E-05  0.796E-03    1.81       4.4  T
  10     -9.8693424  0.155355E-06  0.503E-03    1.81       7.0  T
  11     -9.8693429 -0.441622E-06  0.115E-03    1.81      30.7  T
  12     -9.8693429 -0.122858E-07  0.373E-04    1.81      94.8  T
  13     -9.8693429 -0.267140E-08  0.784E-05    1.81     451.1  T
     SCC iter.                  ...        0 min,  0.002 sec
     gradient                   ...        0 min,  0.000 sec
 * total energy  :    -9.5726924 Eh     change       -0.6062624E-03 Eh
   gradient norm :     0.1602307 Eh/α   predicted    -0.1227681E-01 (1925.00%)
   displ. norm   :     0.4226046 α      lambda       -0.2369519E-01
   maximum displ.:     0.2803950 α      in ANC's #2, #5, #7, ...

........................................................................
.............................. CYCLE   18 ..............................
........................................................................
   1     -9.8190365 -0.981904E+01  0.133E+00    1.75       0.0  T
   2     -9.8132103  0.582624E-02  0.119E+00    1.76       1.0  T
   3     -9.8066253  0.658505E-02  0.119E+00    1.83       1.0  T
   4     -9.6851064  0.121519E+00  0.218E+00    1.30       1.0  T
   5     -9.8171046 -0.131998E+00  0.362E-01    1.86       1.0  T
   6     -9.8204570 -0.335235E-02  0.129E-01    1.76       1.0  T
   7     -9.8205568 -0.998361E-04  0.815E-02    1.76       1.0  T
   8     -9.8206424 -0.855384E-04  0.530E-02    1.75       1.0  T
   9     -9.8206884 -0.459997E-04  0.106E-02    1.74       3.3  T
  10     -9.8206901 -0.170792E-05  0.165E-03    1.74      21.4  T
  11     -9.8206901  0.169245E-08  0.114E-03    1.74      31.1  T
  12     -9.8206901 -0.143240E-07  0.244E-04    1.74     144.9  T
  13     -9.8206901 -0.178185E-09  0.608E-05    1.74     581.4  T
     SCC iter.                  ...        0 min,  0.002 sec
     gradient                   ...        0 min,  0.001 sec
 * total energy  :    -9.5736928 Eh     change       -0.1000407E-02 Eh
   gradient norm :     0.1417324 Eh/α   predicted    -0.1396351E-01 (1295.78%)
   displ. norm   :     0.3600090 α      lambda       -0.1887788E-01
   maximum displ.:     0.2598701 α      in ANC's #3, #7, #4, ...

........................................................................
.............................. CYCLE   19 ..............................
........................................................................
   1     -9.8220302 -0.982203E+01  0.159E+00    1.51       0.0  T
   2     -9.8052017  0.168285E-01  0.150E+00    1.40       1.0  T
   3     -9.7507897  0.544120E-01  0.200E+00    2.04       1.0  T
   4     -9.6981694  0.526203E-01  0.200E+00    1.05       1.0  T
   5     -9.8154244 -0.117255E+00  0.526E-01    1.71       1.0  T
   6     -9.8232232 -0.779876E-02  0.260E-01    1.55       1.0  T
   7     -9.8229632  0.259971E-03  0.201E-01    1.58       1.0  T
   8     -9.8233978 -0.434625E-03  0.891E-02    1.53       1.0  T
   9     -9.8234942 -0.963754E-04  0.200E-02    1.54       1.8  T
  10     -9.8234995 -0.532447E-05  0.928E-03    1.55       3.8  T
  11     -9.8234999 -0.399784E-06  0.226E-03    1.55      15.7  T
  12     -9.8235000 -0.339542E-07  0.900E-04    1.55      39.3  T
  13     -9.8235000 -0.925057E-09  0.253E-04    1.55     139.7  T
     SCC iter.                  ...        0 min,  0.002 sec
     gradient                   ...        0 min,  0.000 sec
 * total energy  :    -9.5770676 Eh     change       -0.3374784E-02 Eh
   gradient norm :     0.0810020 Eh/α   predicted    -0.1066228E-01 ( 215.94%)
   displ. norm   :     0.5001983 α      lambda       -0.2095349E-01
   maximum displ.:     0.3392004 α      in ANC's #5, #3, #6, ...

........................................................................
.............................. CYCLE   20 ..............................
........................................................................
   1     -9.9035148 -0.990351E+01  0.245E+00    1.81       0.0  T
   2     -9.8758340  0.276808E-01  0.193E+00    1.41       1.0  T
   3     -9.6470483  0.228786E+00  0.352E+00    3.50       1.0  T
   4     -9.8386376 -0.191589E+00  0.154E+00    2.43       1.0  T
   5     -9.9002333 -0.615957E-01  0.534E-01    1.85       1.0  T
   6     -9.9051563 -0.492295E-02  0.245E-01    1.75       1.0  T
   7     -9.9048637  0.292631E-03  0.218E-01    1.77       1.0  T
   8     -9.9047339  0.129768E-03  0.167E-01    1.78       1.0  T
   9     -9.9053024 -0.568453E-03  0.702E-02    1.75       1.0  T
  10     -9.9053868 -0.843960E-04  0.297E-02    1.74       1.2  T
  11     -9.9054017 -0.149295E-04  0.577E-03    1.73       6.1  T
  12     -9.9054025 -0.835771E-06  0.469E-04    1.73      75.3  T
  13     -9.9054025  0.839095E-08  0.601E-04    1.73      58.8  T
     SCC iter.                  ...        0 min,  0.002 sec
     gradient                   ...        0 min,  0.001 sec
 * total energy  :    -9.5715126 Eh     change        0.5554964E-02 Eh
   gradient norm :     0.1880528 Eh/α   predicted    -0.1309801E-01 (-335.79%)
   displ. norm   :     0.2335212 α      lambda       -0.2281744E-01
   maximum displ.:     0.1392861 α      in ANC's #5, #8, #2, ...
 * RMSD in coord.:     2.1075458 α      energy gain  -0.6598097E+00 Eh

generating ANC from model Hessian ...
Using Lindh-Hessian (1995)
 Shifting diagonal of input Hessian by    1.0265165044796761E-002
 Lowest  eigenvalues of input Hessian
    0.010000    0.010160    0.000000    0.000000    0.000000    0.000000
    0.000000    0.000000    0.010349    0.010444    0.010955    0.011105
    0.012275    0.012497    0.047079    0.130286    0.245203    0.374037
 Highest eigenvalues
    0.515382    0.584954    0.827539    0.922232    1.744038    2.649473


........................................................................
.............................. CYCLE   21 ..............................
........................................................................
   1     -9.8605330 -0.986053E+01  0.106E+00    1.69       0.0  T
   2     -9.8417751  0.187580E-01  0.113E+00    2.03       1.0  T
   3     -9.7858958  0.558793E-01  0.181E+00    1.35       1.0  T
   4     -9.8554599 -0.695641E-01  0.501E-01    1.88       1.0  T
   5     -9.8609015 -0.544163E-02  0.197E-01    1.76       1.0  T
   6     -9.8611843 -0.282822E-03  0.142E-01    1.76       1.0  T
   7     -9.8614394 -0.255113E-03  0.435E-02    1.73       1.0  T
   8     -9.8614093  0.301550E-04  0.384E-02    1.74       1.0  T
   9     -9.8614470 -0.377224E-04  0.149E-02    1.73       2.4  T
  10     -9.8614517 -0.472100E-05  0.229E-03    1.73      15.4  T
  11     -9.8614518 -0.865665E-07  0.119E-03    1.73      29.7  T
  12     -9.8614518 -0.144966E-07  0.153E-04    1.73     231.7  T
  13     -9.8614518 -0.161952E-09  0.560E-05    1.73     631.2  T
     SCC iter.                  ...        0 min,  0.002 sec
     gradient                   ...        0 min,  0.000 sec
 * total energy  :    -9.5833293 Eh     change       -0.1181663E-01 Eh
   gradient norm :     0.0145938 Eh/α   predicted     0.0000000E+00 (-100.00%)
   displ. norm   :     0.4371893 α      lambda       -0.3704755E-02
   maximum displ.:     0.2588470 α      in ANC's #8, #4, #6, ...

........................................................................
.............................. CYCLE   22 ..............................
........................................................................
   1     -9.8586455 -0.985865E+01  0.962E-01    1.76       0.0  T
   2     -9.8562659  0.237964E-02  0.679E-01    1.67       1.0  T
   3     -9.7828676  0.733983E-01  0.190E+00    2.36       1.0  T
   4     -9.8584793 -0.756117E-01  0.165E-01    1.77       1.0  T
   5     -9.8587154 -0.236117E-03  0.110E-01    1.74       1.0  T
   6     -9.8586490  0.664000E-04  0.108E-01    1.73       1.0  T
   7     -9.8587516 -0.102600E-03  0.319E-02    1.76       1.1  T
   8     -9.8587794 -0.277660E-04  0.142E-02    1.75       2.5  T
   9     -9.8587794 -0.582680E-07  0.899E-03    1.75       3.9  T
  10     -9.8587797 -0.270716E-06  0.412E-03    1.75       8.6  T
  11     -9.8587798 -0.119263E-06  0.182E-03    1.75      19.5  T
  12     -9.8587799 -0.460843E-07  0.265E-04    1.75     133.5  T
  13     -9.8587799 -0.115927E-08  0.637E-05    1.75     555.2  T
     SCC iter.                  ...        0 min,  0.001 sec
     gradient                   ...        0 min,  0.000 sec
 * total energy  :    -9.5860834 Eh     change       -0.2754110E-02 Eh
   gradient norm :     0.0156405 Eh/α   predicted    -0.2206427E-02 ( -19.89%)
   displ. norm   :     0.6927223 α      lambda       -0.5774000E-02
   maximum displ.:     0.4405641 α      in ANC's #8, #9, #6, ...

........................................................................
.............................. CYCLE   23 ..............................
........................................................................
   1     -9.8420217 -0.984202E+01  0.180E+00    1.68       0.0  T
   2     -9.8419044  0.117266E-03  0.115E+00    1.71       1.0  T
   3     -9.8318649  0.100395E-01  0.909E-01    1.70       1.0  T
   4     -9.8354444 -0.357952E-02  0.549E-01    1.57       1.0  T
   5     -9.8418211 -0.637673E-02  0.150E-01    1.74       1.0  T
   6     -9.8412262  0.594955E-03  0.209E-01    1.65       1.0  T
   7     -9.8421838 -0.957633E-03  0.125E-02    1.71       2.8  T
   8     -9.8421840 -0.208880E-06  0.889E-03    1.70       4.0  T
   9     -9.8421849 -0.913219E-06  0.215E-03    1.70      16.5  T
  10     -9.8421850 -0.276845E-07  0.617E-04    1.70      57.3  T
  11     -9.8421850 -0.158480E-08  0.158E-04    1.70     223.2  T
     SCC iter.                  ...        0 min,  0.001 sec
     gradient                   ...        0 min,  0.000 sec
 * total energy  :    -9.5874805 Eh     change       -0.1397159E-02 Eh
   gradient norm :     0.0429660 Eh/α   predicted    -0.4272366E-02 ( 205.79%)
   displ. norm   :     0.4204547 α      lambda       -0.6218108E-02
   maximum displ.:     0.2667145 α      in ANC's #4, #7, #9, ...

........................................................................
.............................. CYCLE   24 ..............................
........................................................................
   1     -9.8516697 -0.985167E+01  0.147E+00    1.74       0.0  T
   2     -9.8347636  0.169062E-01  0.120E+00    1.50       1.0  T
   3     -9.7123043  0.122459E+00  0.263E+00    2.67       1.0  T
   4     -9.8302449 -0.117941E+00  0.915E-01    2.02       1.0  T
   5     -9.8514056 -0.211606E-01  0.282E-01    1.65       1.0  T
   6     -9.8518216 -0.416073E-03  0.199E-01    1.75       1.0  T
   7     -9.8521921 -0.370482E-03  0.107E-01    1.71       1.0  T
   8     -9.8522329 -0.407342E-04  0.379E-02    1.71       1.0  T
   9     -9.8522455 -0.126715E-04  0.165E-02    1.71       2.1  T
  10     -9.8522443  0.120660E-05  0.114E-02    1.71       3.1  T
  11     -9.8522453 -0.101537E-05  0.485E-03    1.71       7.3  T
  12     -9.8522458 -0.506872E-06  0.350E-04    1.71     101.1  T
  13     -9.8522458 -0.140309E-08  0.116E-04    1.71     304.7  T
     SCC iter.                  ...        0 min,  0.002 sec
     gradient                   ...        0 min,  0.000 sec
 * total energy  :    -9.5900890 Eh     change       -0.2608485E-02 Eh
   gradient norm :     0.0453313 Eh/α   predicted    -0.3658685E-02 (  40.26%)
   displ. norm   :     0.3442468 α      lambda       -0.4253212E-02
   maximum displ.:     0.2003668 α      in ANC's #7, #5, #8, ...

........................................................................
.............................. CYCLE   25 ..............................
........................................................................
   1     -9.8706671 -0.987067E+01  0.905E-01    1.79       0.0  T
   2     -9.8704725  0.194605E-03  0.571E-01    1.77       1.0  T
   3     -9.8643463  0.612626E-02  0.759E-01    1.79       1.0  T
   4     -9.8682618 -0.391551E-02  0.297E-01    1.88       1.0  T
   5     -9.8704872 -0.222544E-02  0.109E-01    1.75       1.0  T
   6     -9.8707653 -0.278136E-03  0.411E-02    1.78       1.0  T
   7     -9.8707824 -0.170180E-04  0.217E-02    1.78       1.6  T
   8     -9.8707853 -0.297234E-05  0.655E-03    1.78       5.4  T
   9     -9.8707860 -0.658174E-06  0.172E-03    1.78      20.6  T
  10     -9.8707860  0.182704E-07  0.132E-03    1.78      26.7  T
  11     -9.8707860 -0.319701E-07  0.101E-04    1.78     349.6  T
  12     -9.8707860 -0.135870E-09  0.456E-05    1.78     775.6  T
     SCC iter.                  ...        0 min,  0.001 sec
     gradient                   ...        0 min,  0.001 sec
 * total energy  :    -9.5902597 Eh     change       -0.1706559E-03 Eh
   gradient norm :     0.0533521 Eh/α   predicted    -0.2378617E-02 (1293.81%)
   displ. norm   :     0.2460649 α      lambda       -0.3513267E-02
   maximum displ.:     0.1219415 α      in ANC's #9, #7, #6, ...

........................................................................
.............................. CYCLE   26 ..............................
........................................................................
   1     -9.8645768 -0.986458E+01  0.682E-01    1.77       0.0  T
   2     -9.8643015  0.275296E-03  0.438E-01    1.81       1.0  T
   3     -9.7885075  0.757941E-01  0.163E+00    1.38       1.0  T
   4     -9.8645671 -0.760596E-01  0.820E-02    1.78       1.0  T
   5     -9.8645213  0.458450E-04  0.668E-02    1.79       1.0  T
   6     -9.8645894 -0.681762E-04  0.392E-02    1.77       1.0  T
   7     -9.8645962 -0.675436E-05  0.205E-02    1.78       1.7  T
   8     -9.8645998 -0.356897E-05  0.830E-03    1.77       4.3  T
   9     -9.8646007 -0.902772E-06  0.505E-03    1.78       7.0  T
  10     -9.8646012 -0.491939E-06  0.101E-03    1.78      35.0  T
  11     -9.8646012 -0.170776E-07  0.376E-04    1.78      94.1  T
  12     -9.8646012 -0.168574E-08  0.150E-04    1.78     236.0  T
     SCC iter.                  ...        0 min,  0.002 sec
     gradient                   ...        0 min,  0.000 sec
 * total energy  :    -9.5923449 Eh     change       -0.2085234E-02 Eh
   gradient norm :     0.0138303 Eh/α   predicted    -0.1862992E-02 ( -10.66%)
   displ. norm   :     0.4049293 α      lambda       -0.1802766E-02
   maximum displ.:     0.1968328 α      in ANC's #8, #9, #3, ...

........................................................................
.............................. CYCLE   27 ..............................
........................................................................
   1     -9.8552069 -0.985521E+01  0.133E+00    1.73       0.0  T
   2     -9.8516019  0.360500E-02  0.955E-01    1.65       1.0  T
   3     -9.7470151  0.104587E+00  0.237E+00    2.47       1.0  T
   4     -9.8521365 -0.105121E+00  0.389E-01    1.62       1.0  T
   5     -9.8523363 -0.199739E-03  0.329E-01    1.85       1.0  T
   6     -9.8554820 -0.314573E-02  0.118E-01    1.73       1.0  T
   7     -9.8554896 -0.764611E-05  0.406E-02    1.73       1.0  T
   8     -9.8554960 -0.637640E-05  0.215E-02    1.73       1.6  T
   9     -9.8555019 -0.592208E-05  0.773E-03    1.73       4.6  T
  10     -9.8555018  0.187778E-06  0.498E-03    1.74       7.1  T
  11     -9.8555021 -0.362938E-06  0.158E-03    1.74      22.4  T
  12     -9.8555022 -0.392962E-07  0.601E-04    1.73      58.8  T
  13     -9.8555022 -0.711423E-08  0.158E-04    1.73     223.5  T
     SCC iter.                  ...        0 min,  0.002 sec
     gradient                   ...        0 min,  0.000 sec
 * total energy  :    -9.5924534 Eh     change       -0.1084926E-03 Eh
   gradient norm :     0.0477061 Eh/α   predicted    -0.1049176E-02 ( 867.05%)
   displ. norm   :     0.1494325 α      lambda       -0.1885962E-02
   maximum displ.:     0.0790311 α      in ANC's #6, #5, #1, ...

........................................................................
.............................. CYCLE   28 ..............................
........................................................................
   1     -9.8632901 -0.986329E+01  0.460E-01    1.80       0.0  T
   2     -9.8628809  0.409126E-03  0.342E-01    1.81       1.0  T
   3     -9.8548201  0.806079E-02  0.681E-01    1.67       1.0  T
   4     -9.8534276  0.139258E-02  0.566E-01    2.01       1.0  T
   5     -9.8633445 -0.991688E-02  0.428E-02    1.80       1.0  T
   6     -9.8633744 -0.299183E-04  0.234E-02    1.79       1.5  T
   7     -9.8633745 -0.985276E-07  0.179E-02    1.79       2.0  T
   8     -9.8633766 -0.209485E-05  0.483E-03    1.79       7.3  T
   9     -9.8633770 -0.467098E-06  0.141E-03    1.79      25.1  T
  10     -9.8633770  0.165841E-07  0.118E-03    1.79      30.0  T
  11     -9.8633770 -0.314823E-07  0.141E-04    1.79     250.5  T
  12     -9.8633770 -0.442325E-09  0.132E-05    1.79    2674.2  T
     SCC iter.                  ...        0 min,  0.002 sec
     gradient                   ...        0 min,  0.001 sec
 * total energy  :    -9.5935892 Eh     change       -0.1135780E-02 Eh
   gradient norm :     0.0194069 Eh/α   predicted    -0.9640368E-03 ( -15.12%)
   displ. norm   :     0.1752182 α      lambda       -0.8986237E-03
   maximum displ.:     0.0905407 α      in ANC's #5, #11, #9, ...

........................................................................
.............................. CYCLE   29 ..............................
........................................................................
   1     -9.8727669 -0.987277E+01  0.674E-01    1.84       0.0  T
   2     -9.8704081  0.235875E-02  0.575E-01    1.92       1.0  T
   3     -9.8250892  0.453189E-01  0.140E+00    1.53       1.0  T
   4     -9.8604254 -0.353362E-01  0.628E-01    2.10       1.0  T
   5     -9.8727345 -0.123091E-01  0.969E-02    1.87       1.0  T
   6     -9.8729079 -0.173398E-03  0.511E-02    1.84       1.0  T
   7     -9.8729043  0.356259E-05  0.428E-02    1.84       1.0  T
   8     -9.8729134 -0.902280E-05  0.988E-03    1.84       3.6  T
   9     -9.8729149 -0.154929E-05  0.428E-03    1.84       8.3  T
  10     -9.8729151 -0.196727E-06  0.167E-03    1.84      21.2  T
  11     -9.8729152 -0.423615E-07  0.415E-04    1.84      85.3  T
  12     -9.8729152 -0.434716E-08  0.500E-05    1.84     707.5  T
     SCC iter.                  ...        0 min,  0.002 sec
     gradient                   ...        0 min,  0.000 sec
 * total energy  :    -9.5938835 Eh     change       -0.2943378E-03 Eh
   gradient norm :     0.0156534 Eh/α   predicted    -0.4631083E-03 (  57.34%)
   displ. norm   :     0.4591236 α      lambda       -0.1522285E-02
   maximum displ.:     0.2652038 α      in ANC's #4, #9, #3, ...

........................................................................
.............................. CYCLE   30 ..............................
........................................................................
   1     -9.8681660 -0.986817E+01  0.172E+00    1.83       0.0  T
   2     -9.8541602  0.140058E-01  0.133E+00    1.61       1.0  T
   3     -9.6876581  0.166502E+00  0.302E+00    3.02       1.0  T
   4     -9.8422199 -0.154562E+00  0.101E+00    2.18       1.0  T
   5     -9.8667366 -0.245167E-01  0.325E-01    1.72       1.0  T
   6     -9.8681539 -0.141728E-02  0.202E-01    1.86       1.0  T
   7     -9.8686040 -0.450129E-03  0.933E-02    1.83       1.0  T
   8     -9.8687211 -0.117075E-03  0.407E-02    1.82       1.0  T
   9     -9.8687410 -0.198817E-04  0.183E-02    1.81       1.9  T
  10     -9.8687405  0.496129E-06  0.981E-03    1.82       3.6  T
  11     -9.8687406 -0.991416E-07  0.458E-03    1.82       7.7  T
  12     -9.8687410 -0.449630E-06  0.102E-03    1.82      34.6  T
  13     -9.8687410 -0.148476E-07  0.571E-04    1.82      61.9  T
  14     -9.8687410 -0.778764E-08  0.198E-05    1.82    1783.5  T
     SCC iter.                  ...        0 min,  0.002 sec
     gradient                   ...        0 min,  0.001 sec
 * total energy  :    -9.5946274 Eh     change       -0.7439111E-03 Eh
   gradient norm :     0.0234241 Eh/α   predicted    -0.9215862E-03 (  23.88%)
   displ. norm   :     0.1136831 α      lambda       -0.6600479E-03
   maximum displ.:     0.0627179 α      in ANC's #5, #11, #8, ...

........................................................................
.............................. CYCLE   31 ..............................
........................................................................
   1     -9.8732594 -0.987326E+01  0.426E-01    1.86       0.0  T
   2     -9.8726703  0.589162E-03  0.330E-01    1.90       1.0  T
   3     -9.8532411  0.194292E-01  0.901E-01    1.64       1.0  T
   4     -9.8690042 -0.157632E-01  0.379E-01    2.01       1.0  T
   5     -9.8732669 -0.426271E-02  0.592E-02    1.87       1.0  T
   6     -9.8732732 -0.621883E-05  0.438E-02    1.87       1.0  T
   7     -9.8733085 -0.353865E-04  0.209E-02    1.86       1.7  T
   8     -9.8733111 -0.250750E-05  0.417E-03    1.86       8.5  T
   9     -9.8733110  0.658315E-07  0.350E-03    1.86      10.1  T
  10     -9.8733112 -0.232816E-06  0.413E-04    1.86      85.6  T
  11     -9.8733112 -0.184482E-08  0.126E-04    1.86     280.1  T
     SCC iter.                  ...        0 min,  0.003 sec
     gradient                   ...        0 min,  0.000 sec
 * total energy  :    -9.5949698 Eh     change       -0.3423907E-03 Eh
   gradient norm :     0.0216850 Eh/α   predicted    -0.3342909E-03 (  -2.37%)
   displ. norm   :     0.2723737 α      lambda       -0.7128967E-03
   maximum displ.:     0.1302983 α      in ANC's #9, #8, #4, ...

........................................................................
.............................. CYCLE   32 ..............................
........................................................................
   1     -9.8636534 -0.986365E+01  0.103E+00    1.84       0.0  T
   2     -9.8632246  0.428832E-03  0.693E-01    1.90       1.0  T
   3     -9.6702300  0.192995E+00  0.250E+00    1.24       1.0  T
   4     -9.8627703 -0.192540E+00  0.263E-01    1.80       1.0  T
   5     -9.8636288 -0.858512E-03  0.978E-02    1.87       1.0  T
   6     -9.8637164 -0.876457E-04  0.529E-02    1.85       1.0  T
   7     -9.8637015  0.149772E-04  0.446E-02    1.85       1.0  T
   8     -9.8637234 -0.219581E-04  0.605E-03    1.85       5.8  T
   9     -9.8637235 -0.724423E-07  0.322E-03    1.85      11.0  T
[...]
   7     -9.8733439  0.166304E-07  0.261E-03    1.89      13.6  T
   8     -9.8733441 -0.159503E-06  0.464E-04    1.89      76.2  T
   9     -9.8733441 -0.855387E-10  0.275E-04    1.89     128.8  T
     SCC iter.                  ...        0 min,  0.001 sec
     gradient                   ...        0 min,  0.001 sec
 * total energy  :    -9.5964588 Eh     change       -0.6256517E-04 Eh
   gradient norm :     0.0057004 Eh/α   predicted    -0.1079886E-03 (  72.60%)
   displ. norm   :     0.0901636 α      lambda       -0.1301608E-03
   maximum displ.:     0.0514463 α      in ANC's #2, #6, #3, ...

........................................................................
.............................. CYCLE   48 ..............................
........................................................................
   1     -9.8705077 -0.987051E+01  0.219E-01    1.89       0.0  T
   2     -9.8705079 -0.153323E-06  0.133E-01    1.89       1.0  T
   3     -9.8705063  0.157282E-05  0.149E-02    1.89       2.4  T
   4     -9.8705057  0.587210E-06  0.129E-02    1.88       2.7  T
   5     -9.8704894  0.162594E-04  0.249E-02    1.90       1.4  T
   6     -9.8705080 -0.185264E-04  0.205E-03    1.89      17.3  T
   7     -9.8705080  0.333083E-09  0.149E-03    1.89      23.8  T
   8     -9.8705080 -0.390333E-07  0.420E-04    1.89      84.3  T
   9     -9.8705080 -0.838892E-09  0.155E-04    1.89     228.0  T
     SCC iter.                  ...        0 min,  0.002 sec
     gradient                   ...        0 min,  0.000 sec
 * total energy  :    -9.5964924 Eh     change       -0.3354072E-04 Eh
   gradient norm :     0.0038857 Eh/α   predicted    -0.6560995E-04 (  95.61%)
   displ. norm   :     0.0308220 α      lambda       -0.4909898E-04
   maximum displ.:     0.0197152 α      in ANC's #2, #6, #3, ...

........................................................................
.............................. CYCLE   49 ..............................
........................................................................
   1     -9.8719042 -0.987190E+01  0.850E-02    1.89       0.0  T
   2     -9.8719016  0.264133E-05  0.530E-02    1.89       1.0  T
   3     -9.8713874  0.514140E-03  0.145E-01    1.85       1.0  T
   4     -9.8718969 -0.509498E-03  0.152E-02    1.89       2.3  T
   5     -9.8719043 -0.738829E-05  0.268E-03    1.89      13.2  T
   6     -9.8719043 -0.476690E-07  0.166E-03    1.89      21.3  T
   7     -9.8719044 -0.217023E-07  0.862E-04    1.89      41.0  T
   8     -9.8719044 -0.534864E-08  0.271E-04    1.89     130.3  T
     SCC iter.                  ...        0 min,  0.002 sec
     gradient                   ...        0 min,  0.001 sec
 * total energy  :    -9.5965159 Eh     change       -0.2355002E-04 Eh
   gradient norm :     0.0006496 Eh/α   predicted    -0.2457295E-04 (   4.34%)
   displ. norm   :     0.0471433 α      lambda       -0.7076155E-05
   maximum displ.:     0.0226699 α      in ANC's #4, #8, #1, ...

........................................................................
.............................. CYCLE   50 ..............................
........................................................................
   1     -9.8718021 -0.987180E+01  0.100E-01    1.89       0.0  T
   2     -9.8718021  0.755436E-07  0.641E-02    1.89       1.0  T
   3     -9.8717432  0.588837E-04  0.484E-02    1.87       1.0  T
   4     -9.8718020 -0.588088E-04  0.827E-03    1.89       4.3  T
   5     -9.8718016  0.398493E-06  0.629E-03    1.89       5.6  T
   6     -9.8718018 -0.249435E-06  0.410E-03    1.89       8.6  T
   7     -9.8718024 -0.526684E-06  0.709E-04    1.89      49.8  T
   8     -9.8718024 -0.257413E-08  0.394E-04    1.89      89.6  T
     SCC iter.                  ...        0 min,  0.001 sec
     gradient                   ...        0 min,  0.001 sec
 * total energy  :    -9.5965228 Eh     change       -0.6877884E-05 Eh
   gradient norm :     0.0005204 Eh/α   predicted    -0.3540805E-05 ( -48.52%)
   displ. norm   :     0.0418531 α      lambda       -0.3720258E-05
   maximum displ.:     0.0213699 α      in ANC's #4, #8, #1, ...

........................................................................
.............................. CYCLE   51 ..............................
........................................................................
   1     -9.8718487 -0.987185E+01  0.775E-02    1.89       0.0  T
   2     -9.8718480  0.671672E-06  0.504E-02    1.89       1.0  T
   3     -9.8716353  0.212666E-03  0.918E-02    1.86       1.0  T
   4     -9.8718480 -0.212627E-03  0.836E-03    1.89       4.2  T
   5     -9.8718476  0.370540E-06  0.781E-03    1.89       4.5  T
   6     -9.8718482 -0.602148E-06  0.485E-03    1.89       7.3  T
   7     -9.8718489 -0.656948E-06  0.117E-03    1.89      30.2  T
   8     -9.8718489 -0.126947E-07  0.296E-04    1.89     119.5  T
   9     -9.8718489 -0.287480E-09  0.994E-05    1.89     355.7  T
     SCC iter.                  ...        0 min,  0.002 sec
     gradient                   ...        0 min,  0.001 sec
 * total energy  :    -9.5965260 Eh     change       -0.3217657E-05 Eh
   gradient norm :     0.0005152 Eh/α   predicted    -0.1862072E-05 ( -42.13%)
   displ. norm   :     0.0350605 α      lambda       -0.2198912E-05
   maximum displ.:     0.0230310 α      in ANC's #4, #1, #2, ...

   *** GEOMETRY OPTIMIZATION CONVERGED AFTER 51 ITERATIONS ***

------------------------------------------------------------------------
 total energy gain   :        -0.6848231 Eh     -429.7330 kcal/mol
 total RMSD          :         2.4316555 a0        1.2868 Å
 total power (kW/mol):       -35.2549554 (step)********** (real)
------------------------------------------------------------------------

 ANCopt (total)                0 d,  0 h,  0 min,  0.143 sec
 optimizer setup                ...        0 min,  0.000 sec (  0.029%)
 model hessian                  ...        0 min,  0.000 sec (  0.122%)
 ANC generation                 ...        0 min,  0.000 sec (  0.076%)
 coordinate transformation      ...        0 min,  0.000 sec (  0.096%)
 single point calculation       ...        0 min,  0.139 sec ( 97.017%)
 optimization log               ...        0 min,  0.001 sec (  0.826%)
 hessian update                 ...        0 min,  0.001 sec (  0.747%)
 rational function              ...        0 min,  0.001 sec (  0.504%)

================
 final structure:
================
8
 xtb: 6.5.1 (conda-forge)
Be           0.47842642124710        0.52146455473738       -0.69553734934599
B            1.50207370968507        0.30305412471347        0.58184082904901
C            2.33545382570917        0.12434461626816        1.63129095848401
C            3.16969926231714       -0.05390068819716        2.66791802532574
C            3.92125217507884       -0.20229762904363        3.61329569240399
H            4.58378130848954       -0.35149639159740        4.41317563056484
H            2.32360699080300        0.78524844553932        5.27445988194883
H            2.03570630667117        1.04557496757917        5.95455633156733

 Bond Distances (Angstroems)
 ---------------------------
Be1-B2=1.6514        B2-Be1=1.6514        B2-C3=1.3520         C3-B2=1.3520         C3-C4=1.3425         C4-C3=1.3425         
C4-C5=1.2168         C5-C4=1.2168         C5-H6=1.0493         H6-C5=1.0493         H7-H8=0.7831         H8-H7=0.7831         
 H  H  Rav=0.7831 sigma=0.0000  Rmin=0.7831  Rmax=0.7831     1
 B  Be Rav=1.6514 sigma=0.0000  Rmin=1.6514  Rmax=1.6514     1
 C  H  Rav=1.0493 sigma=0.0000  Rmin=1.0493  Rmax=1.0493     1
 C  B  Rav=1.3520 sigma=0.0000  Rmin=1.3520  Rmax=1.3520     1
 C  C  Rav=1.2797 sigma=0.0629  Rmin=1.2168  Rmax=1.3425     2

 selected bond angles (degree)
 --------------------
C3-B2-Be1=179.75               C4-C3-B2=179.63                C5-C4-C3=179.29                H6-C5-C4=178.37                

 selected dihedral angles (degree)
 ---------------------------------
C4-C3-B2-Be1=175.67           C5-C4-C3-B2=123.75            H6-C5-C4-C3=195.71            

 CMA Distance (Angstroems)
 ---------------------------
R(CMA):  3.8413
           -------------------------------------------------
          |                Final Singlepoint                |
           -------------------------------------------------

          ...................................................
          :                      SETUP                      :
          :.................................................:
          :  # basis functions                  23          :
          :  # atomic orbitals                  23          :
          :  # shells                           13          :
          :  # electrons                        20          :
          :  max. iterations                   250          :
          :  Hamiltonian                  GFN2-xTB          :
          :  restarted?                      false          :
          :  GBSA solvation                  false          :
          :  PC potential                    false          :
          :  electronic temp.          300.0000000     K    :
          :  accuracy                    1.0000000          :
          :  -> integral cutoff          0.2500000E+02      :
          :  -> integral neglect         0.1000000E-07      :
          :  -> SCF convergence          0.1000000E-05 Eh   :
          :  -> wf. convergence          0.1000000E-03 e    :
          :  Broyden damping             0.4000000          :
          ...................................................

 iter      E             dE          RMSdq      gap      omega  full diag
   1     -9.8718489 -0.987185E+01  0.446E-05    1.89       0.0  T
   2     -9.8718489  0.572626E-09  0.148E-04    1.89     239.3  T
   3     -9.8718489 -0.582027E-09  0.300E-05    1.89    1179.3  T

   *** convergence criteria satisfied after 3 iterations ***

         #    Occupation            Energy/Eh            Energy/eV
      -------------------------------------------------------------
         1        2.0000           -0.5417647             -14.7422
       ...           ...                  ...                  ...
         4        2.0000           -0.4330114             -11.7828
         5        2.0000           -0.4094729             -11.1423
         6        2.0000           -0.3724697             -10.1354
         7        2.0000           -0.3713563             -10.1051
         8        2.0000           -0.3500255              -9.5247
         9        2.0000           -0.2862895              -7.7903
        10        2.0000           -0.2862186              -7.7884 (HOMO)
        11                         -0.2168349              -5.9004 (LUMO)
        12                         -0.2047091              -5.5704
        13                         -0.2046210              -5.5680
        14                         -0.0845248              -2.3000
        15                         -0.0840841              -2.2880
       ...                                ...                  ...
        23                          1.5449832              42.0411
      -------------------------------------------------------------
                  HL-Gap            0.0693838 Eh            1.8880 eV
             Fermi-level           -0.2515267 Eh           -6.8444 eV

 SCC (total)                   0 d,  0 h,  0 min,  0.002 sec
 SCC setup                      ...        0 min,  0.000 sec (  7.997%)
 Dispersion                     ...        0 min,  0.000 sec (  6.824%)
 classical contributions        ...        0 min,  0.000 sec (  3.923%)
 integral evaluation            ...        0 min,  0.000 sec (  7.795%)
 iterations                     ...        0 min,  0.001 sec ( 28.784%)
 molecular gradient             ...        0 min,  0.001 sec ( 42.646%)
 printout                       ...        0 min,  0.000 sec (  1.640%)

         :::::::::::::::::::::::::::::::::::::::::::::::::::::
         ::                     SUMMARY                     ::
         :::::::::::::::::::::::::::::::::::::::::::::::::::::
         :: total energy              -9.596525998810 Eh    ::
         :: gradient norm              0.000515187882 Eh/a0 ::
         :: HOMO-LUMO gap              1.888028359017 eV    ::
         ::.................................................::
         :: SCC energy                -9.871848875461 Eh    ::
         :: -> isotropic ES            0.002927397615 Eh    ::
         :: -> anisotropic ES          0.017179075726 Eh    ::
         :: -> anisotropic XC         -0.003026551114 Eh    ::
         :: -> dispersion             -0.003957062258 Eh    ::
         :: repulsion energy           0.275327786481 Eh    ::
         :: add. restraining           0.000000000000 Eh    ::
         :: total charge              -0.000000000000 e     ::
         :::::::::::::::::::::::::::::::::::::::::::::::::::::

           -------------------------------------------------
          |                Property Printout                |
           -------------------------------------------------

    * Orbital Energies and Occupations

         #    Occupation            Energy/Eh            Energy/eV
      -------------------------------------------------------------
         1        2.0000           -0.5417647             -14.7422
         2        2.0000           -0.5026113             -13.6768
         3        2.0000           -0.4493912             -12.2286
         4        2.0000           -0.4330114             -11.7828
         5        2.0000           -0.4094729             -11.1423
         6        2.0000           -0.3724697             -10.1354
         7        2.0000           -0.3713563             -10.1051
         8        2.0000           -0.3500255              -9.5247
         9        2.0000           -0.2862895              -7.7903
        10        2.0000           -0.2862186              -7.7884 (HOMO)
        11                         -0.2168349              -5.9004 (LUMO)
        12                         -0.2047091              -5.5704
        13                         -0.2046210              -5.5680
        14                         -0.0845248              -2.3000
        15                         -0.0840841              -2.2880
        16                          0.0418112               1.1377
        17                          0.0420931               1.1454
        18                          0.1552495               4.2246
        19                          0.1635205               4.4496
        20                          0.4292478              11.6804
        21                          0.8079178              21.9846
       ...                                ...                  ...
        23                          1.5449832              42.0411
      -------------------------------------------------------------
                  HL-Gap            0.0693838 Eh            1.8880 eV
             Fermi-level           -0.2515267 Eh           -6.8444 eV

     #   Z          covCN         q      C6AA      α(0)
     1   4 Be       0.912     0.368    66.951    24.541
     2   5 B        1.819    -0.080    47.699    14.549
     3   6 C        1.890    -0.137    34.975     9.551
     4   6 C        1.962    -0.028    31.817     9.109
     5   6 C        1.910    -0.140    35.045     9.561
     6   1 H        0.928     0.025     2.657     2.549
     7   1 H        0.793     0.018     2.819     2.640
     8   1 H        0.793    -0.027     3.640     2.999

 Mol. C6AA /au·bohr⁶  :       1340.972714
 Mol. C8AA /au·bohr⁸  :      41312.792995
 Mol. α(0) /au        :         75.498905


Wiberg/Mayer (AO) data.
largest (>0.10) Wiberg bond orders for each atom

 ---------------------------------------------------------------------------
     #   Z sym  total        # sym  WBO       # sym  WBO       # sym  WBO
 ---------------------------------------------------------------------------
     1   4 Be   1.743 --     2 B    1.332     3 C    0.403
     2   5 B    3.761 --     3 C    2.158     1 Be   1.332     5 C    0.254
     3   6 C    3.953 --     2 B    2.158     4 C    1.368     1 Be   0.403
     4   6 C    3.977 --     5 C    2.570     3 C    1.368
     5   6 C    3.825 --     4 C    2.570     6 H    0.977     2 B    0.254
     6   1 H    0.999 --     5 C    0.977
     7   1 H    1.000 --     8 H    0.988
     8   1 H    0.997 --     7 H    0.988
 ---------------------------------------------------------------------------

Topologies differ in total number of bonds
Writing topology from bond orders to xtbtopo.mol

molecular dipole:
                 x           y           z       tot (Debye)
 q only:       -1.507       0.298      -1.999
   full:       -2.294       0.466      -2.984       9.640
molecular quadrupole (traceless):
                xx          xy          yy          xz          yz          zz
 q only:       -6.062       0.359       9.079     -13.512      -1.068      -3.017
  q+dip:       -8.297      -2.108       3.359      -5.818      -4.181       4.939
   full:       -8.636      -1.240       6.541     -10.148      -3.433       2.095

           -------------------------------------------------
          |                Geometry Summary                 |
           -------------------------------------------------

      molecular mass/u    :       58.8792411
   center of mass at/Å    :        2.4250111       0.1338889       1.8822152
  moments of inertia/u·Å² :        0.1512719E+02   0.2287849E+03   0.2439108E+03
rotational constants/cm⁻¹ :        0.1114393E+01   0.7368334E-01   0.6911394E-01

 * 5 selected distances

     #   Z          #   Z                                           value/Å
     1   4 Be       2   5 B                                       1.6514395 (max)
     2   5 B        3   6 C                                       1.3519635
     4   6 C        5   6 C                                       1.2167961
     5   6 C        6   1 H                                       1.0492918
     7   1 H        8   1 H                                       0.7830632 (min)

 * 5 distinct bonds (by element types)

   Z      Z             #   av. dist./Å        max./Å        min./Å
   1 H    1 H           1     0.7830632     0.7830632     0.7830632
   4 Be   5 B           1     1.6514395     1.6514395     1.6514395
   1 H    6 C           1     1.0492918     1.0492918     1.0492918
   5 B    6 C           1     1.3519635     1.3519635     1.3519635
   6 C    6 C           1     1.2167961     1.2167961     1.2167961


optimized geometry written to: xtbopt.xyz


           -------------------------------------------------
          | TOTAL ENERGY               -9.596525998810 Eh   |
          | GRADIENT NORM               0.000515187882 Eh/α |
          | HOMO-LUMO GAP               1.888028359017 eV   |
           -------------------------------------------------
########################################################################
[WARNING] Runtime exception occurred
-2- restart_readRestart: Dimension missmatch in restart file.
-1- restart_readRestart: Number of electron missmatch in restart file.
########################################################################

------------------------------------------------------------------------
 * finished run on 2025/06/07 at 03:27:48.461     
------------------------------------------------------------------------
 total:
 * wall-time:     0 d,  0 h,  0 min,  0.300 sec
Note: The following floating-point exceptions are signalling: IEEE_UNDERFLOW_FLAG
normal termination of xtb
 *  cpu-time:     0 d,  0 h,  0 min,  4.097 sec
 * ratio c/w:    13.641 speedup
 SCF:
 * wall-time:     0 d,  0 h,  0 min,  0.146 sec
 *  cpu-time:     0 d,  0 h,  0 min,  1.888 sec
 * ratio c/w:    12.901 speedup
 ANC optimizer:
 * wall-time:     0 d,  0 h,  0 min,  0.146 sec
 *  cpu-time:     0 d,  0 h,  0 min,  2.138 sec
 * ratio c/w:    14.668 speedup

