      -----------------------------------------------------------      
     |                   =====================                   |     
     |                           x T B                           |     
     |                   =====================                   |     
     |                         S. Grimme                         |     
     |          Mulliken Center for Theoretical Chemistry        |     
     |                    University of Bonn                     |     
      -----------------------------------------------------------      

   * xtb version 6.5.1 (conda-forge) compiled by 'runner@Mac-1657629245115.local' on 2022-07-12

   xtb is free software: you can redistribute it and/or modify it under
   the terms of the GNU Lesser General Public License as published by
   the Free Software Foundation, either version 3 of the License, or
   (at your option) any later version.
   
   xtb is distributed in the hope that it will be useful,
   but WITHOUT ANY WARRANTY; without even the implied warranty of
   MERCHANTABILITY or FITNESS FOR A PARTICULAR PURPOSE.  See the
   GNU Lesser General Public License for more details.
   
   Cite this work as:
   * C. Bannwarth, E. Caldeweyher, S. Ehlert, A. Hansen, P. Pracht,
     J. Seibert, S. Spicher, S. Grimme, WIREs Comput. Mol. Sci., 2020, 11,
     e01493. DOI: 10.1002/wcms.1493
   
   for GFN2-xTB:
   * C. Bannwarth, S. Ehlert and S. Grimme., J. Chem. Theory Comput., 2019,
     15, 1652-1671. DOI: 10.1021/acs.jctc.8b01176
   for GFN1-xTB:
   * S. Grimme, C. Bannwarth, P. Shushkov, J. Chem. Theory Comput., 2017,
     13, 1989-2009. DOI: 10.1021/acs.jctc.7b00118
   for GFN0-xTB:
   * P. Pracht, E. Caldeweyher, S. Ehlert, S. Grimme, ChemRxiv, 2019, preprint.
     DOI: 10.26434/chemrxiv.8326202.v1
   for GFN-FF:
   * S. Spicher and S. Grimme, Angew. Chem. Int. Ed., 2020, 59, 15665-15673.
     DOI: 10.1002/anie.202004239
   
   for ALPB and GBSA implicit solvation:
   * S. Ehlert, M. Stahn, S. Spicher, S. Grimme, J. Chem. Theory Comput.,
     2021, 17, 4250-4261. DOI: 10.1021/acs.jctc.1c00471
   
   for DFT-D4:
   * E. Caldeweyher, C. Bannwarth and S. Grimme, J. Chem. Phys., 2017,
     147, 034112. DOI: 10.1063/1.4993215
   * E. Caldeweyher, S. Ehlert, A. Hansen, H. Neugebauer, S. Spicher,
     C. Bannwarth and S. Grimme, J. Chem. Phys., 2019, 150, 154122.
     DOI: 10.1063/1.5090222
   * E. Caldeweyher, J.-M. Mewes, S. Ehlert and S. Grimme, Phys. Chem. Chem. Phys.
     2020, 22, 8499-8512. DOI: 10.1039/D0CP00502A
   
   for sTDA-xTB:
   * S. Grimme and C. Bannwarth, J. Chem. Phys., 2016, 145, 054103.
     DOI: 10.1063/1.4959605
   
   in the mass-spec context:
   * V. Asgeirsson, C. Bauer and S. Grimme, Chem. Sci., 2017, 8, 4879.
     DOI: 10.1039/c7sc00601b
   * J. Koopman and S. Grimme, ACS Omega 2019, 4, 12, 15120-15133.
     DOI: 10.1021/acsomega.9b02011
   
   for metadynamics refer to:
   * S. Grimme, J. Chem. Theory Comput., 2019, 155, 2847-2862
     DOI: 10.1021/acs.jctc.9b00143
   
   for SPH calculations refer to:
   * S. Spicher and S. Grimme, J. Chem. Theory Comput., 2021, 17, 1701-1714
     DOI: 10.1021/acs.jctc.0c01306
   
   with help from (in alphabetical order)
   P. Atkinson, C. Bannwarth, F. Bohle, G. Brandenburg, E. Caldeweyher
   M. Checinski, S. Dohm, S. Ehlert, S. Ehrlich, I. Gerasimov, C. Hölzer
   A. Katbashev, J. Koopman, C. Lavigne, S. Lehtola, F. März, M. Müller,
   F. Musil, H. Neugebauer, J. Pisarek, C. Plett, P. Pracht, F. Pultar,
   J. Seibert, P. Shushkov, S. Spicher, M. Stahn, M. Steiner, T. Strunk,
   J. Stückrath, T. Rose, and J. Unsleber
   
 * started run on 2025/06/07 at 03:27:47.902     

           -------------------------------------------------
          |                Calculation Setup                |
           -------------------------------------------------

          program call               : xtb BBeC2H5.xyz --gfn 2 --opt
          coordinate file            : BBeC2H5.xyz
          omp threads                :                    16

   ID    Z sym.   atoms
    1    4 Be     1
    2    5 B      2
    3    6 C      3, 4
    4    1 H      5-9

molecular fragmentation (1/2 indicates fragments):
122222222
# atoms in fragment 1/2:     1     8
 fragment masses (1/2) :        9.01       39.87
CMA distance (Bohr)    :   6.775
constraining FC (au)   :  0.0500

           -------------------------------------------------
          |                 G F N 2 - x T B                 |
           -------------------------------------------------

        Reference                      10.1021/acs.jctc.8b01176
      * Hamiltonian:
        H0-scaling (s, p, d)           1.850000    2.230000    2.230000
        zeta-weighting                 0.500000
      * Dispersion:
        s8                             2.700000
        a1                             0.520000
        a2                             5.000000
        s9                             5.000000
      * Repulsion:
        kExp                           1.500000    1.000000
        rExp                           1.000000
      * Coulomb:
        alpha                          2.000000
        third order                    shell-resolved
        anisotropic                    true
        a3                             3.000000
        a5                             4.000000
        cn-shift                       1.200000
        cn-exp                         4.000000
        max-rad                        5.000000


          ...................................................
          :                      SETUP                      :
          :.................................................:
          :  # basis functions                  21          :
          :  # atomic orbitals                  21          :
          :  # shells                           13          :
          :  # electrons                        18          :
          :  max. iterations                   250          :
          :  Hamiltonian                  GFN2-xTB          :
          :  restarted?                      false          :
          :  GBSA solvation                  false          :
          :  PC potential                    false          :
          :  electronic temp.          300.0000000     K    :
          :  accuracy                    1.0000000          :
          :  -> integral cutoff          0.2500000E+02      :
          :  -> integral neglect         0.1000000E-07      :
          :  -> SCF convergence          0.1000000E-05 Eh   :
          :  -> wf. convergence          0.1000000E-03 e    :
          :  Broyden damping             0.4000000          :
          ...................................................

 iter      E             dE          RMSdq      gap      omega  full diag
   1     15.9063998  0.159064E+02  0.244E+01    0.83       0.0  T
   2     -3.8238400 -0.197302E+02  0.200E+01    1.39       1.0  T
   3     -5.6218487 -0.179801E+01  0.137E+01    1.64       1.0  T
   4     -5.0682138  0.553635E+00  0.116E+01    0.51       1.0  T
   5     -4.9565367  0.111677E+00  0.134E+01    1.88       1.0  T
   6     -5.8815512 -0.925014E+00  0.982E+00    1.72       1.0  T
   7     -5.2642063  0.617345E+00  0.216E+01    0.38       1.0  T
   8     16.5218283  0.217860E+02  0.218E+01    1.04       1.0  T
   9     -6.2435098 -0.227653E+02  0.750E+00    1.19       1.0  T
  10     -6.2939349 -0.504251E-01  0.744E+00    1.22       1.0  T
  11     -6.2620197  0.319153E-01  0.732E+00    0.95       1.0  T
  12     -6.3761312 -0.114112E+00  0.669E+00    0.87       1.0  T
  13     -6.3657409  0.103903E-01  0.672E+00    0.89       1.0  T
  14     -6.7484884 -0.382747E+00  0.770E+00    0.88       1.0  T
  15     -6.7438079  0.468044E-02  0.768E+00    0.88       1.0  T
  16     -6.8389058 -0.950978E-01  0.818E+00    0.91       1.0  T
  17     -6.8489541 -0.100483E-01  0.824E+00    0.92       1.0  T
  18     -6.9161115 -0.671574E-01  0.874E+00    0.92       1.0  T
  19     -6.9634988 -0.473873E-01  0.908E+00    0.96       1.0  T
  20     -6.9376839  0.258149E-01  0.876E+00    0.93       1.0  T
  21     -6.9342130  0.347084E-02  0.860E+00    0.91       1.0  T
  22     -6.9336442  0.568882E-03  0.837E+00    0.89       1.0  T
  23     -6.9288059  0.483827E-02  0.774E+00    0.85       1.0  T
  24     -6.9458503 -0.170444E-01  0.715E+00    0.85       1.0  T
  25     -7.0530664 -0.107216E+00  0.658E+00    0.92       1.0  T
  26     -7.1477365 -0.946701E-01  0.616E+00    0.95       1.0  T
  27     -7.1546964 -0.695986E-02  0.608E+00    0.95       1.0  T
  28     -7.6816017 -0.526905E+00  0.432E+00    1.02       1.0  T
  29     -7.6782532  0.334847E-02  0.433E+00    1.02       1.0  T
  30     -7.6884901 -0.102368E-01  0.432E+00    1.03       1.0  T
  31     -7.9577417 -0.269252E+00  0.338E+00    0.45       1.0  T
  32     -7.9991671 -0.414254E-01  0.357E+00    0.33       1.0  T
  33     -8.0061622 -0.699508E-02  0.366E+00    0.31       1.0  T
  34     -8.0000566  0.610564E-02  0.356E+00    0.33       1.0  T
  35     -8.0000817 -0.251376E-04  0.356E+00    0.33       1.0  T
  36     -8.0227808 -0.226991E-01  0.454E+00    0.23       1.0  T
  37     -8.0135854  0.919534E-02  0.372E+00    0.28       1.0  T
  38     -8.0201864 -0.660097E-02  0.407E+00    0.25       1.0  T
  39     -8.0163784  0.380803E-02  0.386E+00    0.27       1.0  T
  40     -8.0145357  0.184262E-02  0.377E+00    0.28       1.0  T
  41     -8.0048570  0.967871E-02  0.347E+00    0.31       1.0  T
  42     -8.0083010 -0.344402E-02  0.340E+00    0.31       1.0  T
  43     -8.0133913 -0.509026E-02  0.320E+00    0.31       1.0  T
  44     -8.0241413 -0.107500E-01  0.399E+00    0.25       1.0  T
  45     -8.0223554  0.178592E-02  0.415E+00    0.24       1.0  T
  46     -7.9953277  0.270277E-01  0.510E+00    0.21       1.0  T
  47     -7.9869768  0.835088E-02  0.524E+00    0.21       1.0  T
  48     -7.9701000  0.168769E-01  0.554E+00    0.20       1.0  T
  49     -8.0061349 -0.360349E-01  0.452E+00    0.22       1.0  T
  50     -7.9892165  0.169183E-01  0.488E+00    0.21       1.0  T
  51     -7.9639368  0.252798E-01  0.514E+00    0.20       1.0  T
  52     -7.7942775  0.169659E+00  0.724E+00    0.19       1.0  T
  53     -7.8188156 -0.245381E-01  0.694E+00    0.19       1.0  T
  54     -7.8148922  0.392339E-02  0.698E+00    0.19       1.0  T
  55     -7.9728171 -0.157925E+00  0.447E+00    0.21       1.0  T
  56     -7.4483296  0.524488E+00  0.976E+00    0.20       1.0  T
  57     -7.8608551 -0.412525E+00  0.582E+00    0.19       1.0  T
  58     -7.9966893 -0.135834E+00  0.370E+00    0.22       1.0  T
  59     -7.1964861  0.800203E+00  0.108E+01    0.23       1.0  T
  60     -7.9776270 -0.781141E+00  0.355E+00    0.21       1.0  T
  61     -7.3872636  0.590363E+00  0.967E+00    0.20       1.0  T
  62     -7.9595159 -0.572252E+00  0.409E+00    0.20       1.0  T
  63     -7.4691344  0.490381E+00  0.917E+00    0.20       1.0  T
  64     -7.8256135 -0.356479E+00  0.618E+00    0.18       1.0  T
  65     -7.8054087  0.202048E-01  0.643E+00    0.18       1.0  T
  66     -7.7987122  0.669643E-02  0.640E+00    0.18       1.0  T
  67     -7.7563314  0.423809E-01  0.684E+00    0.18       1.0  T
  68     -7.7624610 -0.612957E-02  0.678E+00    0.18       1.0  T
  69     -7.7635473 -0.108635E-02  0.675E+00    0.18       1.0  T
  70     -7.8529087 -0.893614E-01  0.567E+00    0.18       1.0  T
  71     -7.8023620  0.505467E-01  0.620E+00    0.18       1.0  T
  72     -7.8424599 -0.400979E-01  0.568E+00    0.18       1.0  T
  73     -7.8487227 -0.626279E-02  0.553E+00    0.18       1.0  T
  74     -7.9333488 -0.846261E-01  0.410E+00    0.18       1.0  T
  75     -7.9465671 -0.132183E-01  0.379E+00    0.18       1.0  T
  76     -7.9813758 -0.348087E-01  0.305E+00    0.19       1.0  T
  77     -7.9767879  0.458791E-02  0.317E+00    0.18       1.0  T
  78     -8.0065407 -0.297528E-01  0.240E+00    0.20       1.0  T
  79     -8.0004381  0.610266E-02  0.265E+00    0.20       1.0  T
  80     -8.0021279 -0.168979E-02  0.260E+00    0.20       1.0  T
  81     -8.0000820  0.204587E-02  0.266E+00    0.20       1.0  T
  82     -8.0022171 -0.213513E-02  0.257E+00    0.20       1.0  T
  83     -8.0098587 -0.764155E-02  0.229E+00    0.20       1.0  T
  84     -8.0142626 -0.440396E-02  0.211E+00    0.21       1.0  T
  85     -8.0185338 -0.427115E-02  0.192E+00    0.21       1.0  T
  86     -8.0209149 -0.238110E-02  0.180E+00    0.22       1.0  T
  87     -8.0224932 -0.157830E-02  0.170E+00    0.22       1.0  T
  88     -8.0229593 -0.466097E-03  0.167E+00    0.22       1.0  T
  89     -8.0230310 -0.717047E-04  0.166E+00    0.22       1.0  T
  90     -8.0240700 -0.103903E-02  0.152E+00    0.22       1.0  T
  91     -8.0260604 -0.199038E-02  0.118E+00    0.24       1.0  T
  92     -8.0225677  0.349269E-02  0.115E+00    0.26       1.0  T
  93     -8.0172166  0.535110E-02  0.128E+00    0.29       1.0  T
  94     -8.0154796  0.173698E-02  0.132E+00    0.29       1.0  T
  95     -8.0176254 -0.214582E-02  0.131E+00    0.28       1.0  T
  96     -8.0194901 -0.186463E-02  0.126E+00    0.28       1.0  T
  97     -8.0198176 -0.327538E-03  0.118E+00    0.28       1.0  T
  98     -8.0199062 -0.886097E-04  0.112E+00    0.29       1.0  T
  99     -8.0175928  0.231344E-02  0.121E+00    0.30       1.0  T
 100     -8.0164525  0.114023E-02  0.126E+00    0.31       1.0  T
 101     -8.0223807 -0.592817E-02  0.892E-01    0.29       1.0  T
 102     -8.0267566 -0.437586E-02  0.506E-01    0.27       1.0  T
 103     -8.0276726 -0.916037E-03  0.379E-01    0.27       1.0  T
 104     -8.0274000  0.272601E-03  0.412E-01    0.27       1.0  T
 105     -8.0267250  0.675064E-03  0.498E-01    0.28       1.0  T
 106     -8.0272771 -0.552117E-03  0.397E-01    0.28       1.0  T
 107     -8.0277364 -0.459342E-03  0.305E-01    0.27       1.0  T
 108     -8.0278647 -0.128286E-03  0.275E-01    0.27       1.0  T
 109     -8.0279488 -0.841424E-04  0.248E-01    0.28       1.0  T
 110     -8.0281092 -0.160358E-03  0.182E-01    0.27       1.0  T
 111     -8.0282375 -0.128283E-03  0.114E-01    0.27       1.0  T
 112     -8.0282944 -0.569456E-04  0.676E-02    0.27       1.0  T
 113     -8.0283159 -0.214687E-04  0.387E-02    0.27       1.0  T
 114     -8.0283235 -0.762811E-05  0.199E-02    0.27       1.7  T
 115     -8.0283259 -0.232376E-05  0.625E-03    0.27       5.3  T
 116     -8.0283257  0.143805E-06  0.610E-03    0.27       5.5  T
 117     -8.0283259 -0.235806E-06  0.334E-03    0.27      10.0  T
 118     -8.0283260 -0.760206E-07  0.855E-04    0.27      39.0  T
 119     -8.0283260 -0.778911E-08  0.260E-04    0.27     128.0  T

   *** convergence criteria satisfied after 119 iterations ***

         #    Occupation            Energy/Eh            Energy/eV
      -------------------------------------------------------------
         1        2.0000           -0.5757088             -15.6658
       ...           ...                  ...                  ...
         3        2.0000           -0.4584651             -12.4755
         4        2.0000           -0.4107680             -11.1776
         5        2.0000           -0.3650129              -9.9325
         6        2.0000           -0.3212847              -8.7426
         7        2.0000           -0.3083379              -8.3903
         8        2.0000           -0.2833899              -7.7114
         9        1.9894           -0.2674222              -7.2769 (HOMO)
        10        0.0106           -0.2574686              -7.0061 (LUMO)
        11                         -0.2252022              -6.1281
        12                         -0.2079298              -5.6581
        13                         -0.1987725              -5.4089
        14                         -0.1555852              -4.2337
       ...                                ...                  ...
        21                          0.6554955              17.8369
      -------------------------------------------------------------
                  HL-Gap            0.0099536 Eh            0.2709 eV
             Fermi-level           -0.2624454 Eh           -7.1415 eV

 SCC (total)                   0 d,  0 h,  0 min,  0.036 sec
 SCC setup                      ...        0 min,  0.000 sec (  0.202%)
 Dispersion                     ...        0 min,  0.000 sec (  0.222%)
 classical contributions        ...        0 min,  0.000 sec (  0.194%)
 integral evaluation            ...        0 min,  0.000 sec (  0.366%)
 iterations                     ...        0 min,  0.035 sec ( 97.235%)
 molecular gradient             ...        0 min,  0.001 sec (  1.666%)
 printout                       ...        0 min,  0.000 sec (  0.082%)

         :::::::::::::::::::::::::::::::::::::::::::::::::::::
         ::                     SUMMARY                     ::
         :::::::::::::::::::::::::::::::::::::::::::::::::::::
         :: total energy              -7.954657569804 Eh    ::
         :: gradient norm              0.281877125014 Eh/a0 ::
         :: HOMO-LUMO gap              0.270851366488 eV    ::
         ::.................................................::
         :: SCC energy                -8.028326030036 Eh    ::
         :: -> isotropic ES           -0.022029342366 Eh    ::
         :: -> anisotropic ES          0.010812268549 Eh    ::
         :: -> anisotropic XC         -0.016209176062 Eh    ::
         :: -> dispersion             -0.005917186072 Eh    ::
         :: repulsion energy           0.073663423173 Eh    ::
         :: add. restraining           0.000000000000 Eh    ::
         :: total charge               0.000000000534 e     ::
         :::::::::::::::::::::::::::::::::::::::::::::::::::::

      ----------------------------------------------------------- 
     |                   =====================                   |
     |                        A N C O P T                        |
     |                   =====================                   |
     |               Approximate Normal Coordinate               |
     |                Rational Function Optimizer                |
      ----------------------------------------------------------- 

          ...................................................
          :                      SETUP                      :
          :.................................................:
          :   optimization level            normal          :
          :   max. optcycles                   200          :
          :   ANC micro-cycles                  20          :
          :   degrees of freedom                21          :
          :.................................................:
          :   RF solver                   davidson          :
          :   write xtbopt.log                true          :
          :   linear?                        false          :
          :   energy convergence         0.5000000E-05 Eh   :
          :   grad. convergence          0.1000000E-02 Eh/α :
          :   maximium RF displ.         1.0000000          :
          :   Hlow (freq-cutoff)         0.1000000E-01      :
          :   Hmax (freq-cutoff)         5.0000000          :
          :   S6 in model hess.         20.0000000          :
          ...................................................

generating ANC from model Hessian ...
Using Lindh-Hessian (1995)
 Shifting diagonal of input Hessian by    1.9613340192115830E-002
 Lowest  eigenvalues of input Hessian
    0.010000    0.019328    0.000000    0.000000    0.000000    0.000000
    0.000000    0.000000    0.020462    0.020609    0.020765    0.021738
    0.028500    0.033432    0.036233    0.039739    0.048458    0.063885
 Highest eigenvalues
    0.215659    0.256529    0.317569    0.368747    0.410862    0.508114


........................................................................
.............................. CYCLE    1 ..............................
........................................................................
   1     -8.0283260 -0.802833E+01  0.345E-04    0.27       0.0  T
   2     -8.0283258  0.264890E-06  0.566E-03    0.27       5.9  T
   3     -8.0283260 -0.265364E-06  0.224E-04    0.27     148.5  T
   4     -8.0283260 -0.124832E-09  0.185E-04    0.27     180.6  T
     SCC iter.                  ...        0 min,  0.001 sec
     gradient                   ...        0 min,  0.001 sec
 * total energy  :    -7.9546576 Eh     change       -0.5485212E-09 Eh
   gradient norm :     0.2817902 Eh/α   predicted     0.0000000E+00 (-100.00%)
   displ. norm   :     0.7677947 α      lambda       -0.1961354E+00
   maximum displ.:     0.3448478 α      in ANC's #1, #14, #11, ...

........................................................................
.............................. CYCLE    2 ..............................
........................................................................
   1     -8.1285784 -0.812858E+01  0.269E+00    0.37       0.0  T
   2      3.0918609  0.112204E+02  0.157E+01    0.62       1.0  T
   3     -7.9797720 -0.110716E+02  0.333E+00    1.05       1.0  T
   4     -8.1033417 -0.123570E+00  0.200E+00    0.55       1.0  T
   5     -8.0974182  0.592350E-02  0.146E+00    0.57       1.0  T
   6     -8.0681751  0.292431E-01  0.147E+00    0.66       1.0  T
   7     -8.1296955 -0.615204E-01  0.972E-01    0.41       1.0  T
   8     -8.1309582 -0.126271E-02  0.961E-01    0.41       1.0  T
   9     -8.1479960 -0.170379E-01  0.939E-01    0.34       1.0  T
  10     -8.1477882  0.207846E-03  0.907E-01    0.34       1.0  T
  11     -8.1572791 -0.949089E-02  0.762E-01    0.30       1.0  T
  12     -8.1596794 -0.240029E-02  0.778E-01    0.29       1.0  T
  13     -8.1538348  0.584460E-02  0.871E-01    0.32       1.0  T
  14     -8.1510661  0.276868E-02  0.114E+00    0.32       1.0  T
  15     -8.1564953 -0.542921E-02  0.779E-01    0.31       1.0  T
  16     -8.1629549 -0.645963E-02  0.632E-01    0.28       1.0  T
  17     -8.1625111  0.443834E-03  0.516E-01    0.27       1.0  T
  18     -8.1621400  0.371089E-03  0.640E-01    0.27       1.0  T
  19     -8.1627546 -0.614623E-03  0.373E-01    0.27       1.0  T
  20     -8.1630402 -0.285563E-03  0.170E-02    0.28       2.0  T
  21     -8.1630477 -0.749678E-05  0.581E-02    0.28       1.0  T
  22     -8.1630494 -0.172942E-05  0.776E-03    0.28       4.3  T
  23     -8.1630465  0.291227E-05  0.112E-02    0.28       3.0  T
  24     -8.1630504 -0.391700E-05  0.101E-02    0.28       3.3  T
  25     -8.1630504  0.226857E-07  0.236E-03    0.28      14.1  T
  26     -8.1630504 -0.332139E-07  0.148E-03    0.28      22.5  T
  27     -8.1630504  0.141958E-09  0.512E-04    0.28      65.1  T
  28     -8.1630504 -0.166137E-09  0.188E-04    0.28     177.4  T
     SCC iter.                  ...        0 min,  0.003 sec
     gradient                   ...        0 min,  0.000 sec
 * total energy  :    -8.1041138 Eh     change       -0.1494562E+00 Eh
   gradient norm :     0.1969534 Eh/α   predicted    -0.1558794E+00 (   4.30%)
   displ. norm   :     0.7857145 α      lambda       -0.1492244E+00
   maximum displ.:     0.4684760 α      in ANC's #20, #10, #14, ...

........................................................................
.............................. CYCLE    3 ..............................
........................................................................
   1     -8.2358676 -0.823587E+01  0.382E+00    0.39       0.0  T
   2     -7.5344431  0.701424E+00  0.929E+00    2.34       1.0  T
   3     -8.1252030 -0.590760E+00  0.550E+00    1.38       1.0  T
   4     -8.2108125 -0.856095E-01  0.426E+00    0.87       1.0  T
   5     -8.2838300 -0.730175E-01  0.310E+00    0.72       1.0  T
   6     -8.3243481 -0.405180E-01  0.238E+00    0.46       1.0  T
   7     -8.2049177  0.119430E+00  0.488E+00    0.40       1.0  T
   8     -8.2610782 -0.561605E-01  0.390E+00    0.40       1.0  T
   9     -8.3265623 -0.654841E-01  0.165E+00    0.42       1.0  T
  10     -8.3403788 -0.138165E-01  0.459E-01    0.46       1.0  T
  11     -8.3332221  0.715671E-02  0.101E+00    0.50       1.0  T
  12     -8.3040460  0.291761E-01  0.250E+00    0.40       1.0  T
  13     -8.3333182 -0.292722E-01  0.114E+00    0.42       1.0  T
  14     -8.3359423 -0.262410E-02  0.883E-01    0.43       1.0  T
  15     -8.3405950 -0.465271E-02  0.855E-02    0.45       1.0  T
  16     -8.3403205  0.274509E-03  0.228E-01    0.44       1.0  T
  17     -8.3406075 -0.287018E-03  0.743E-02    0.45       1.0  T
  18     -8.3406105 -0.301311E-05  0.728E-02    0.45       1.0  T
  19     -8.3406369 -0.264453E-04  0.308E-02    0.45       1.1  T
  20     -8.3406414 -0.445413E-05  0.144E-02    0.45       2.3  T
  21     -8.3406424 -0.104366E-05  0.554E-03    0.45       6.0  T
  22     -8.3406426 -0.155423E-06  0.204E-03    0.45      16.4  T
  23     -8.3406426 -0.193163E-07  0.960E-04    0.45      34.7  T
  24     -8.3406426 -0.520890E-08  0.308E-04    0.45     108.2  T
     SCC iter.                  ...        0 min,  0.003 sec
     gradient                   ...        0 min,  0.001 sec
 * total energy  :    -8.2001517 Eh     change       -0.9603793E-01 Eh
   gradient norm :     0.1883393 Eh/α   predicted    -0.1206738E+00 (  25.65%)
   displ. norm   :     0.6329222 α      lambda       -0.8176959E-01
   maximum displ.:     0.3047132 α      in ANC's #10, #1, #13, ...

........................................................................
.............................. CYCLE    4 ..............................
........................................................................
   1     -8.3870451 -0.838705E+01  0.305E+00    0.86       0.0  T
   2     -4.3160218  0.407102E+01  0.150E+01    0.26       1.0  T
   3     -8.2761184 -0.396010E+01  0.398E+00    1.39       1.0  T
   4     -8.2647581  0.113603E-01  0.360E+00    1.44       1.0  T
   5     -8.3474867 -0.827286E-01  0.216E+00    0.97       1.0  T
   6     -8.3359681  0.115186E-01  0.212E+00    1.07       1.0  T
   7     -8.3408139 -0.484582E-02  0.202E+00    1.06       1.0  T
   8     -8.3651465 -0.243326E-01  0.163E+00    0.96       1.0  T
   9     -8.3811111 -0.159645E-01  0.131E+00    0.90       1.0  T
  10     -8.3758563  0.525476E-02  0.144E+00    0.91       1.0  T
  11     -8.3780649 -0.220857E-02  0.138E+00    0.91       1.0  T
  12     -8.3975557 -0.194909E-01  0.749E-01    0.84       1.0  T
  13     -8.4005984 -0.304270E-02  0.540E-01    0.83       1.0  T
  14     -8.4044133 -0.381485E-02  0.222E-01    0.80       1.0  T
  15     -8.4040987  0.314571E-03  0.205E-01    0.81       1.0  T
  16     -8.4044940 -0.395292E-03  0.997E-02    0.80       1.0  T
  17     -8.4044852  0.876419E-05  0.403E-02    0.80       1.0  T
  18     -8.4045047 -0.194081E-04  0.341E-03    0.80       9.8  T
  19     -8.4045047 -0.434939E-07  0.809E-03    0.80       4.1  T
  20     -8.4045048 -0.776309E-07  0.236E-03    0.80      14.1  T
  21     -8.4045048 -0.204411E-08  0.771E-04    0.80      43.2  T
  22     -8.4045048 -0.489849E-08  0.443E-04    0.80      75.3  T
     SCC iter.                  ...        0 min,  0.003 sec
     gradient                   ...        0 min,  0.000 sec
 * total energy  :    -8.2656057 Eh     change       -0.6545403E-01 Eh
   gradient norm :     0.0955609 Eh/α   predicted    -0.5726286E-01 ( -12.51%)
   displ. norm   :     0.8184828 α      lambda       -0.7352603E-01
   maximum displ.:     0.4322057 α      in ANC's #10, #13, #20, ...

........................................................................
.............................. CYCLE    5 ..............................
........................................................................
   1     -8.4916340 -0.849163E+01  0.418E+00    1.33       0.0  T
   2     -8.4142913  0.773427E-01  0.308E+00    0.98       1.0  T
   3     -8.1700684  0.244223E+00  0.589E+00    2.55       1.0  T
   4     -8.4690024 -0.298934E+00  0.225E+00    1.34       1.0  T
   5     -8.4708418 -0.183942E-02  0.158E+00    1.57       1.0  T
   6     -8.4890515 -0.182097E-01  0.106E+00    1.45       1.0  T
   7     -8.4967395 -0.768805E-02  0.526E-01    1.36       1.0  T
   8     -8.4985484 -0.180886E-02  0.198E-01    1.32       1.0  T
   9     -8.4979708  0.577587E-03  0.268E-01    1.34       1.0  T
  10     -8.4986617 -0.690913E-03  0.764E-02    1.30       1.0  T
  11     -8.4986657 -0.398237E-05  0.177E-02    1.30       1.9  T
  12     -8.4986662 -0.498460E-06  0.655E-03    1.30       5.1  T
  13     -8.4986668 -0.605163E-06  0.374E-03    1.30       8.9  T
  14     -8.4986670 -0.140289E-06  0.738E-04    1.30      45.2  T
  15     -8.4986670 -0.325022E-08  0.627E-04    1.30      53.2  T
     SCC iter.                  ...        0 min,  0.002 sec
     gradient                   ...        0 min,  0.000 sec
 * total energy  :    -8.3013682 Eh     change       -0.3576248E-01 Eh
   gradient norm :     0.1914093 Eh/α   predicted    -0.6139105E-01 (  71.66%)
   displ. norm   :     0.5273225 α      lambda       -0.5900852E-01
   maximum displ.:     0.3066246 α      in ANC's #10, #13, #16, ...

........................................................................
.............................. CYCLE    6 ..............................
........................................................................
   1     -8.5110662 -0.851107E+01  0.136E+00    0.91       0.0  T
   2     -8.4752132  0.358530E-01  0.162E+00    1.26       1.0  T
   3     -8.2294432  0.245770E+00  0.509E+00    0.42       1.0  T
   4     -8.4837646 -0.254321E+00  0.182E+00    0.74       1.0  T
   5     -8.5137511 -0.299865E-01  0.378E-01    0.88       1.0  T
   6     -8.5146125 -0.861446E-03  0.308E-01    0.99       1.0  T
   7     -8.5135614  0.105115E-02  0.437E-01    1.01       1.0  T
   8     -8.5154986 -0.193717E-02  0.978E-02    0.95       1.0  T
   9     -8.5154397  0.588574E-04  0.120E-01    0.96       1.0  T
  10     -8.5154773 -0.375869E-04  0.952E-02    0.96       1.0  T
  11     -8.5155467 -0.694597E-04  0.390E-02    0.95       1.0  T
  12     -8.5155574 -0.106716E-04  0.304E-03    0.95      10.9  T
  13     -8.5155575 -0.307837E-07  0.315E-03    0.95      10.6  T
  14     -8.5155575 -0.801417E-07  0.163E-03    0.95      20.4  T
  15     -8.5155576 -0.242205E-07  0.295E-04    0.95     113.1  T
  16     -8.5155576 -0.812241E-09  0.202E-05    0.95    1646.4  T
     SCC iter.                  ...        0 min,  0.002 sec
     gradient                   ...        0 min,  0.000 sec
 * total energy  :    -8.3423404 Eh     change       -0.4097223E-01 Eh
   gradient norm :     0.0804067 Eh/α   predicted    -0.3770847E-01 (  -7.97%)
   displ. norm   :     0.7735699 α      lambda       -0.4945409E-01
   maximum displ.:     0.4664126 α      in ANC's #13, #16, #15, ...

........................................................................
.............................. CYCLE    7 ..............................
........................................................................
   1     -8.5268918 -0.852689E+01  0.187E+00    0.77       0.0  T
   2     -8.4805287  0.463630E-01  0.200E+00    1.31       1.0  T
   3     -8.0943228  0.386206E+00  0.660E+00    0.26       1.0  T
   4     -8.5070786 -0.412756E+00  0.164E+00    0.66       1.0  T
   5     -8.5286536 -0.215750E-01  0.507E-01    0.94       1.0  T
   6     -8.5295846 -0.931017E-03  0.382E-01    0.92       1.0  T
   7     -8.5296777 -0.930373E-04  0.352E-01    0.92       1.0  T
   8     -8.5297575 -0.798503E-04  0.314E-01    0.92       1.0  T
   9     -8.5301070 -0.349436E-03  0.204E-01    0.91       1.0  T
  10     -8.5302182 -0.111252E-03  0.162E-01    0.90       1.0  T
  11     -8.5302982 -0.799602E-04  0.102E-01    0.90       1.0  T
  12     -8.5303362 -0.380342E-04  0.580E-02    0.90       1.0  T
  13     -8.5303582 -0.219441E-04  0.106E-02    0.89       3.1  T
  14     -8.5303586 -0.435496E-06  0.191E-03    0.89      17.5  T
  15     -8.5303586 -0.252529E-07  0.132E-03    0.89      25.3  T
  16     -8.5303586 -0.810074E-08  0.238E-04    0.89     139.9  T
  17     -8.5303586 -0.349337E-09  0.308E-05    0.89    1083.8  T
     SCC iter.                  ...        0 min,  0.002 sec
     gradient                   ...        0 min,  0.000 sec
 * total energy  :    -8.3719229 Eh     change       -0.2958251E-01 Eh
   gradient norm :     0.0830524 Eh/α   predicted    -0.3952395E-01 (  33.61%)
   displ. norm   :     0.5843668 α      lambda       -0.2926257E-01
   maximum displ.:     0.3007776 α      in ANC's #16, #2, #1, ...

........................................................................
.............................. CYCLE    8 ..............................
........................................................................
   1     -8.5049909 -0.850499E+01  0.212E+00    1.00       0.0  T
   2     -7.9396293  0.565362E+00  0.590E+00    0.26       1.0  T
   3     -8.3902687 -0.450639E+00  0.326E+00    1.82       1.0  T
   4     -8.4438117 -0.535430E-01  0.236E+00    1.42       1.0  T
   5     -8.4814287 -0.376170E-01  0.157E+00    1.21       1.0  T
   6     -8.4972822 -0.158534E-01  0.109E+00    1.08       1.0  T
   7     -8.5036415 -0.635936E-02  0.854E-01    1.03       1.0  T
   8     -8.5097845 -0.614303E-02  0.463E-01    0.96       1.0  T
   9     -8.5113552 -0.157062E-02  0.270E-01    0.94       1.0  T
  10     -8.5119904 -0.635215E-03  0.134E-01    0.93       1.0  T
  11     -8.5121950 -0.204602E-03  0.491E-02    0.92       1.0  T
  12     -8.5122199 -0.249398E-04  0.217E-02    0.91       1.5  T
  13     -8.5122227 -0.274684E-05  0.157E-02    0.90       2.1  T
  14     -8.5122241 -0.142863E-05  0.109E-02    0.91       3.1  T
  15     -8.5122249 -0.793760E-06  0.666E-03    0.91       5.0  T
  16     -8.5122254 -0.495313E-06  0.129E-03    0.91      25.8  T
  17     -8.5122254 -0.107773E-07  0.543E-04    0.91      61.4  T
  18     -8.5122254 -0.241869E-08  0.392E-05    0.91     850.8  T
     SCC iter.                  ...        0 min,  0.003 sec
     gradient                   ...        0 min,  0.000 sec
 * total energy  :    -8.3798393 Eh     change       -0.7916371E-02 Eh
   gradient norm :     0.1072473 Eh/α   predicted    -0.1962763E-01 ( 147.94%)
   displ. norm   :     0.4333404 α      lambda       -0.2690305E-01
   maximum displ.:     0.2408270 α      in ANC's #20, #5, #2, ...

........................................................................
.............................. CYCLE    9 ..............................
........................................................................
   1     -8.5619548 -0.856195E+01  0.216E+00    0.68       0.0  T
   2     -8.4314743  0.130481E+00  0.321E+00    1.83       1.0  T
   3     -8.2643334  0.167141E+00  0.578E+00    0.23       1.0  T
   4     -8.5124418 -0.248108E+00  0.271E+00    0.49       1.0  T
   5     -8.5701249 -0.576831E-01  0.692E-01    0.87       1.0  T
   6     -8.5659111  0.421384E-02  0.876E-01    0.96       1.0  T
   7     -8.5669396 -0.102851E-02  0.778E-01    0.94       1.0  T
   8     -8.5723009 -0.536127E-02  0.178E-01    0.82       1.0  T
   9     -8.5722911  0.975720E-05  0.183E-01    0.82       1.0  T
  10     -8.5720837  0.207350E-03  0.175E-01    0.84       1.0  T
  11     -8.5722936 -0.209816E-03  0.888E-02    0.83       1.0  T
  12     -8.5723587 -0.650919E-04  0.244E-02    0.82       1.4  T
  13     -8.5723633 -0.467282E-05  0.720E-03    0.82       4.6  T
  14     -8.5723638 -0.468407E-06  0.156E-03    0.82      21.4  T
  15     -8.5723638  0.344881E-08  0.132E-03    0.82      25.2  T
  16     -8.5723638 -0.566812E-08  0.665E-04    0.82      50.1  T
  17     -8.5723638 -0.366783E-08  0.140E-04    0.82     237.7  T
     SCC iter.                  ...        0 min,  0.002 sec
     gradient                   ...        0 min,  0.000 sec
 * total energy  :    -8.3923913 Eh     change       -0.1255198E-01 Eh
   gradient norm :     0.0741707 Eh/α   predicted    -0.1597751E-01 (  27.29%)
   displ. norm   :     0.2727793 α      lambda       -0.8782758E-02
   maximum displ.:     0.1601121 α      in ANC's #10, #1, #9, ...

........................................................................
.............................. CYCLE   10 ..............................
........................................................................
   1     -8.5612861 -0.856129E+01  0.787E-01    1.09       0.0  T
   2     -8.5314222  0.298638E-01  0.171E+00    0.80       1.0  T
   3     -8.5542812 -0.228590E-01  0.966E-01    1.23       1.0  T
   4     -8.5609517 -0.667050E-02  0.406E-01    1.03       1.0  T
   5     -8.5625348 -0.158309E-02  0.538E-02    1.04       1.0  T
   6     -8.5625389 -0.406977E-05  0.338E-02    1.04       1.0  T
   7     -8.5625372  0.167029E-05  0.281E-02    1.04       1.2  T
   8     -8.5625398 -0.258788E-05  0.130E-02    1.04       2.6  T
   9     -8.5625393  0.441123E-06  0.115E-02    1.04       2.9  T
  10     -8.5625405 -0.116264E-05  0.228E-03    1.04      14.6  T
  11     -8.5625405 -0.232856E-07  0.101E-03    1.04      33.0  T
  12     -8.5625405 -0.843823E-08  0.953E-05    1.04     349.8  T
  13     -8.5625405 -0.311378E-10  0.321E-05    1.04    1036.9  T
     SCC iter.                  ...        0 min,  0.002 sec
     gradient                   ...        0 min,  0.001 sec
 * total energy  :    -8.3952640 Eh     change       -0.2872726E-02 Eh
   gradient norm :     0.0431568 Eh/α   predicted    -0.4718136E-02 (  64.24%)
   displ. norm   :     0.3370570 α      lambda       -0.9592287E-02
   maximum displ.:     0.1618806 α      in ANC's #5, #13, #1, ...

........................................................................
.............................. CYCLE   11 ..............................
........................................................................
   1     -8.5686952 -0.856870E+01  0.104E+00    1.15       0.0  T
   2     -8.5665240  0.217117E-02  0.717E-01    1.26       1.0  T
   3     -8.5274755  0.390485E-01  0.192E+00    0.93       1.0  T
   4     -8.5651332 -0.376577E-01  0.664E-01    1.19       1.0  T
   5     -8.5696908 -0.455754E-02  0.989E-02    1.20       1.0  T
   6     -8.5696913 -0.541293E-06  0.101E-01    1.18       1.0  T
   7     -8.5696835  0.784599E-05  0.940E-02    1.18       1.0  T
   8     -8.5697708 -0.873383E-04  0.260E-02    1.19       1.3  T
   9     -8.5697784 -0.764477E-05  0.310E-03    1.19      10.8  T
  10     -8.5697784  0.161734E-07  0.191E-03    1.19      17.4  T
  11     -8.5697784 -0.297767E-07  0.391E-04    1.19      85.3  T
  12     -8.5697785 -0.371278E-09  0.273E-04    1.19     122.0  T
     SCC iter.                  ...        0 min,  0.003 sec
     gradient                   ...        0 min,  0.001 sec
 * total energy  :    -8.3953185 Eh     change       -0.5450411E-04 Eh
   gradient norm :     0.0668678 Eh/α   predicted    -0.5341018E-02 (9699.29%)
   displ. norm   :     0.1475824 α      lambda       -0.7489194E-02
   maximum displ.:     0.0802496 α      in ANC's #13, #10, #9, ...

........................................................................
.............................. CYCLE   12 ..............................
........................................................................
   1     -8.5718244 -0.857182E+01  0.546E-01    1.11       0.0  T
   2     -8.5712449  0.579485E-03  0.423E-01    1.14       1.0  T
   3     -8.5661367  0.510818E-02  0.763E-01    1.00       1.0  T
   4     -8.5679896 -0.185296E-02  0.644E-01    1.24       1.0  T
   5     -8.5722097 -0.422005E-02  0.717E-02    1.13       1.0  T
   6     -8.5722317 -0.219583E-04  0.441E-02    1.12       1.0  T
   7     -8.5722365 -0.488940E-05  0.204E-02    1.12       1.6  T
   8     -8.5722388 -0.223167E-05  0.123E-02    1.12       2.7  T
   9     -8.5722400 -0.124367E-05  0.121E-03    1.12      27.4  T
  10     -8.5722400  0.172425E-08  0.134E-03    1.12      24.9  T
  11     -8.5722400 -0.142852E-07  0.202E-04    1.12     164.7  T
  12     -8.5722400 -0.343020E-09  0.275E-05    1.12    1213.1  T
     SCC iter.                  ...        0 min,  0.002 sec
     gradient                   ...        0 min,  0.000 sec
 * total energy  :    -8.3988283 Eh     change       -0.3509811E-02 Eh
   gradient norm :     0.0090109 Eh/α   predicted    -0.3826153E-02 (   9.01%)
   displ. norm   :     0.1272335 α      lambda       -0.6368913E-03
   maximum displ.:     0.0905441 α      in ANC's #1, #9, #8, ...

........................................................................
.............................. CYCLE   13 ..............................
........................................................................
   1     -8.5735788 -0.857358E+01  0.293E-01    1.13       0.0  T
   2     -8.5731283  0.450516E-03  0.275E-01    1.17       1.0  T
   3     -8.5702611  0.286714E-02  0.573E-01    1.03       1.0  T
   4     -8.5735442 -0.328307E-02  0.846E-02    1.13       1.0  T
   5     -8.5736051 -0.609181E-04  0.189E-02    1.13       1.8  T
   6     -8.5736051  0.272263E-07  0.985E-03    1.13       3.4  T
   7     -8.5736052 -0.107408E-06  0.693E-03    1.13       4.8  T
   8     -8.5736055 -0.245903E-06  0.425E-03    1.13       7.8  T
   9     -8.5736055 -0.516525E-07  0.122E-03    1.13      27.3  T
  10     -8.5736055 -0.110827E-07  0.975E-05    1.13     341.8  T
  11     -8.5736055 -0.285052E-10  0.428E-05    1.13     779.1  T
     SCC iter.                  ...        0 min,  0.002 sec
     gradient                   ...        0 min,  0.000 sec
 * total energy  :    -8.3992058 Eh     change       -0.3774387E-03 Eh
   gradient norm :     0.0134582 Eh/α   predicted    -0.3236001E-03 ( -14.26%)
   displ. norm   :     0.2249152 α      lambda       -0.9399552E-03
   maximum displ.:     0.1299261 α      in ANC's #1, #9, #19, ...

........................................................................
.............................. CYCLE   14 ..............................
........................................................................
   1     -8.5839598 -0.858396E+01  0.367E-01    1.14       0.0  T
   2     -8.5836763  0.283442E-03  0.290E-01    1.18       1.0  T
   3     -8.5757955  0.788082E-02  0.868E-01    1.00       1.0  T
   4     -8.5839294 -0.813391E-02  0.680E-02    1.15       1.0  T
   5     -8.5839716 -0.421993E-04  0.330E-02    1.15       1.0  T
   6     -8.5839779 -0.622723E-05  0.110E-02    1.15       3.0  T
   7     -8.5839780 -0.162994E-06  0.827E-03    1.15       4.0  T
   8     -8.5839783 -0.317217E-06  0.473E-03    1.15       7.0  T
   9     -8.5839785 -0.126787E-06  0.993E-04    1.15      33.6  T
  10     -8.5839785 -0.365024E-09  0.317E-04    1.15     105.2  T
     SCC iter.                  ...        0 min,  0.001 sec
     gradient                   ...        0 min,  0.001 sec
 * total energy  :    -8.3994491 Eh     change       -0.2433664E-03 Eh
   gradient norm :     0.0214741 Eh/α   predicted    -0.4937544E-03 ( 102.89%)
   displ. norm   :     0.4215512 α      lambda       -0.1917248E-02
   maximum displ.:     0.3546970 α      in ANC's #1, #9, #19, ...

........................................................................
.............................. CYCLE   15 ..............................
........................................................................
   1     -8.5782612 -0.857826E+01  0.764E-01    1.16       0.0  T
   2     -8.5779382  0.323012E-03  0.527E-01    1.21       1.0  T
   3     -8.5396793  0.382588E-01  0.186E+00    0.86       1.0  T
   4     -8.5775959 -0.379166E-01  0.266E-01    1.21       1.0  T
   5     -8.5782060 -0.610049E-03  0.114E-01    1.19       1.0  T
   6     -8.5782924 -0.863865E-04  0.401E-02    1.18       1.0  T
   7     -8.5782966 -0.428995E-05  0.247E-02    1.18       1.3  T
   8     -8.5783027 -0.608299E-05  0.693E-03    1.17       4.8  T
   9     -8.5783029 -0.134355E-06  0.232E-03    1.17      14.4  T
  10     -8.5783029 -0.261615E-07  0.635E-04    1.17      52.5  T
  11     -8.5783029 -0.233440E-08  0.240E-04    1.17     138.7  T
     SCC iter.                  ...        0 min,  0.003 sec
     gradient                   ...        0 min,  0.000 sec
 * total energy  :    -8.4002807 Eh     change       -0.8315431E-03 Eh
   gradient norm :     0.0169459 Eh/α   predicted    -0.1128982E-02 (  35.77%)
   displ. norm   :     0.1748277 α      lambda       -0.1048717E-02
   maximum displ.:     0.1066253 α      in ANC's #9, #1, #8, ...

........................................................................
.............................. CYCLE   16 ..............................
........................................................................
   1     -8.5715867 -0.857159E+01  0.557E-01    1.13       0.0  T
   2     -8.5714412  0.145543E-03  0.389E-01    1.16       1.0  T
   3     -8.5566504  0.147907E-01  0.117E+00    0.94       1.0  T
   4     -8.5704185 -0.137681E-01  0.331E-01    1.20       1.0  T
   5     -8.5715667 -0.114816E-02  0.879E-02    1.15       1.0  T
   6     -8.5716094 -0.427721E-04  0.421E-02    1.14       1.0  T
   7     -8.5716192 -0.981743E-05  0.243E-02    1.14       1.4  T
   8     -8.5716240 -0.479312E-05  0.920E-03    1.14       3.6  T
   9     -8.5716247 -0.610869E-06  0.276E-03    1.14      12.1  T
  10     -8.5716247 -0.379548E-07  0.466E-04    1.14      71.5  T
  11     -8.5716247 -0.957041E-09  0.126E-04    1.14     265.3  T
     SCC iter.                  ...        0 min,  0.002 sec
     gradient                   ...        0 min,  0.001 sec
 * total energy  :    -8.4007825 Eh     change       -0.5018536E-03 Eh
   gradient norm :     0.0130895 Eh/α   predicted    -0.5403841E-03 (   7.68%)
   displ. norm   :     0.1844454 α      lambda       -0.8908532E-03
   maximum displ.:     0.0972750 α      in ANC's #9, #1, #16, ...

........................................................................
.............................. CYCLE   17 ..............................
........................................................................
   1     -8.5743994 -0.857440E+01  0.678E-01    1.12       0.0  T
   2     -8.5739716  0.427848E-03  0.454E-01    1.08       1.0  T
   3     -8.5499315  0.240401E-01  0.146E+00    1.44       1.0  T
   4     -8.5740480 -0.241165E-01  0.196E-01    1.12       1.0  T
   5     -8.5744497 -0.401657E-03  0.492E-02    1.11       1.0  T
   6     -8.5744560 -0.635425E-05  0.236E-02    1.11       1.4  T
   7     -8.5744585 -0.249540E-05  0.131E-02    1.11       2.5  T
   8     -8.5744599 -0.135619E-05  0.314E-03    1.11      10.6  T
   9     -8.5744597  0.155277E-06  0.437E-03    1.11       7.6  T
  10     -8.5744599 -0.167895E-06  0.329E-04    1.11     101.2  T
  11     -8.5744599  0.106022E-08  0.365E-04    1.11      91.3  T
     SCC iter.                  ...        0 min,  0.002 sec
     gradient                   ...        0 min,  0.000 sec
 * total energy  :    -8.4011732 Eh     change       -0.3906813E-03 Eh
   gradient norm :     0.0107178 Eh/α   predicted    -0.4605794E-03 (  17.89%)
   displ. norm   :     0.2177864 α      lambda       -0.4685808E-03
   maximum displ.:     0.1464836 α      in ANC's #1, #7, #19, ...

........................................................................
.............................. CYCLE   18 ..............................
........................................................................
   1     -8.5771461 -0.857715E+01  0.357E-01    1.10       0.0  T
   2     -8.5758227  0.132341E-02  0.374E-01    1.18       1.0  T
   3     -8.5712253  0.459736E-02  0.778E-01    0.99       1.0  T
   4     -8.5771519 -0.592659E-02  0.768E-02    1.12       1.0  T
   5     -8.5771691 -0.171749E-04  0.624E-02    1.13       1.0  T
   6     -8.5771939 -0.247735E-04  0.325E-02    1.12       1.0  T
   7     -8.5772015 -0.764150E-05  0.130E-02    1.12       2.6  T
   8     -8.5772025 -0.101034E-05  0.510E-03    1.12       6.5  T
   9     -8.5772026 -0.685890E-07  0.249E-03    1.12      13.4  T
  10     -8.5772026 -0.464573E-07  0.544E-04    1.12      61.3  T
  11     -8.5772026 -0.141653E-08  0.934E-05    1.12     356.7  T
     SCC iter.                  ...        0 min,  0.002 sec
     gradient                   ...        0 min,  0.001 sec
 * total energy  :    -8.4014449 Eh     change       -0.2717070E-03 Eh
   gradient norm :     0.0048259 Eh/α   predicted    -0.2454024E-03 (  -9.68%)
   displ. norm   :     0.3115647 α      lambda       -0.3467603E-03
   maximum displ.:     0.2162598 α      in ANC's #1, #9, #19, ...

........................................................................
.............................. CYCLE   19 ..............................
........................................................................
   1     -8.5740517 -0.857405E+01  0.590E-01    1.12       0.0  T
   2     -8.5739674  0.843155E-04  0.380E-01    1.15       1.0  T
   3     -8.5581943  0.157731E-01  0.119E+00    0.93       1.0  T
   4     -8.5737853 -0.155910E-01  0.163E-01    1.15       1.0  T
   5     -8.5740613 -0.276043E-03  0.452E-02    1.13       1.0  T
   6     -8.5740650 -0.368785E-05  0.227E-02    1.13       1.5  T
   7     -8.5740654 -0.413086E-06  0.173E-02    1.13       1.9  T
   8     -8.5740683 -0.285056E-05  0.640E-03    1.13       5.2  T
   9     -8.5740684 -0.121327E-06  0.348E-03    1.13       9.6  T
  10     -8.5740685 -0.867793E-07  0.109E-03    1.13      30.7  T
  11     -8.5740685 -0.598306E-08  0.281E-04    1.13     118.8  T
  12     -8.5740685 -0.184803E-09  0.683E-05    1.13     488.2  T
     SCC iter.                  ...        0 min,  0.002 sec
     gradient                   ...        0 min,  0.000 sec
 * total energy  :    -8.4016121 Eh     change       -0.1671260E-03 Eh
   gradient norm :     0.0080137 Eh/α   predicted    -0.1902096E-03 (  13.81%)
   displ. norm   :     0.1138705 α      lambda       -0.1999107E-03
   maximum displ.:     0.0494414 α      in ANC's #8, #19, #1, ...

........................................................................
.............................. CYCLE   20 ..............................
........................................................................
   1     -8.5782084 -0.857821E+01  0.216E-01    1.14       0.0  T
   2     -8.5780931  0.115283E-03  0.165E-01    1.16       1.0  T
   3     -8.5748201  0.327298E-02  0.547E-01    1.04       1.0  T
   4     -8.5781966 -0.337645E-02  0.409E-02    1.14       1.0  T
   5     -8.5782132 -0.165750E-04  0.169E-02    1.14       2.0  T
   6     -8.5782145 -0.134127E-05  0.670E-03    1.14       5.0  T
   7     -8.5782147 -0.229548E-06  0.336E-03    1.14       9.9  T
   8     -8.5782148 -0.904561E-07  0.986E-04    1.14      33.8  T
   9     -8.5782148 -0.433713E-08  0.511E-04    1.14      65.2  T
     SCC iter.                  ...        0 min,  0.001 sec
     gradient                   ...        0 min,  0.000 sec
 * total energy  :    -8.4017254 Eh     change       -0.1133798E-03 Eh
   gradient norm :     0.0045306 Eh/α   predicted    -0.1012527E-03 ( -10.70%)
   displ. norm   :     0.1827711 α      lambda       -0.9736979E-04
   maximum displ.:     0.1021527 α      in ANC's #1, #9, #19, ...
 * RMSD in coord.:     1.8251222 α      energy gain  -0.4470679E+00 Eh

generating ANC from model Hessian ...
Using Lindh-Hessian (1995)
 Shifting diagonal of input Hessian by    1.0321156520653222E-002
 Lowest  eigenvalues of input Hessian
    0.010000    0.010075    0.010156    0.010254    0.000000    0.000000
    0.000000    0.000000    0.000000    0.000000    0.010325    0.010388
    0.010477    0.010596    0.010676    0.011354    0.011572    0.023306
 Highest eigenvalues
    0.411523    0.563236    0.584819    0.969134    1.144492    1.868512


........................................................................
.............................. CYCLE   21 ..............................
........................................................................
   1     -8.5778659 -0.857787E+01  0.378E-01    1.13       0.0  T
   2     -8.5778239  0.419230E-04  0.245E-01    1.14       1.0  T
   3     -8.5708571  0.696679E-02  0.791E-01    1.00       1.0  T
   4     -8.5777532 -0.689605E-02  0.104E-01    1.14       1.0  T
   5     -8.5778725 -0.119349E-03  0.276E-02    1.13       1.2  T
   6     -8.5778717  0.804673E-06  0.156E-02    1.13       2.1  T
   7     -8.5778732 -0.150391E-05  0.700E-03    1.13       4.8  T
   8     -8.5778736 -0.380200E-06  0.418E-03    1.13       8.0  T
   9     -8.5778737 -0.696732E-07  0.203E-03    1.13      16.4  T
  10     -8.5778737 -0.349133E-07  0.372E-04    1.13      89.5  T
  11     -8.5778737 -0.272451E-09  0.123E-04    1.13     270.0  T
     SCC iter.                  ...        0 min,  0.002 sec
     gradient                   ...        0 min,  0.000 sec
 * total energy  :    -8.4017815 Eh     change       -0.5610075E-04 Eh
   gradient norm :     0.0031492 Eh/α   predicted     0.0000000E+00 (-100.00%)
   displ. norm   :     0.0664667 α      lambda       -0.6835784E-04
   maximum displ.:     0.0390874 α      in ANC's #7, #10, #9, ...

........................................................................
.............................. CYCLE   22 ..............................
........................................................................
   1     -8.5781589 -0.857816E+01  0.155E-01    1.13       0.0  T
   2     -8.5781579  0.949916E-06  0.992E-02    1.12       1.0  T
   3     -8.5778584  0.299575E-03  0.162E-01    1.16       1.0  T
   4     -8.5781421 -0.283777E-03  0.400E-02    1.12       1.0  T
   5     -8.5781601 -0.179762E-04  0.118E-02    1.13       2.8  T
   6     -8.5781603 -0.145052E-06  0.310E-03    1.13      10.8  T
   7     -8.5781602  0.452811E-07  0.323E-03    1.13      10.3  T
   8     -8.5781603 -0.698534E-07  0.191E-03    1.13      17.4  T
   9     -8.5781603 -0.212675E-07  0.556E-04    1.13      59.9  T
  10     -8.5781603 -0.261522E-08  0.344E-05    1.13     969.7  T
     SCC iter.                  ...        0 min,  0.001 sec
     gradient                   ...        0 min,  0.000 sec
 * total energy  :    -8.4018308 Eh     change       -0.4930338E-04 Eh
   gradient norm :     0.0016346 Eh/α   predicted    -0.3432941E-04 ( -30.37%)
   displ. norm   :     0.5407674 α      lambda       -0.3357076E-03
   maximum displ.:     0.2882531 α      in ANC's #7, #10, #1, ...

........................................................................
.............................. CYCLE   23 ..............................
........................................................................
   1     -8.5720580 -0.857206E+01  0.171E+00    1.05       0.0  T
   2     -8.5716237  0.434259E-03  0.111E+00    1.01       1.0  T
   3     -8.5069537  0.646701E-01  0.222E+00    1.59       1.0  T
   4     -8.5718409 -0.648872E-01  0.204E-01    1.07       1.0  T
   5     -8.5719699 -0.129017E-03  0.180E-01    1.08       1.0  T
   6     -8.5721762 -0.206304E-03  0.546E-02    1.07       1.0  T
   7     -8.5721839 -0.771308E-05  0.313E-02    1.06       1.1  T
   8     -8.5721834  0.466928E-06  0.276E-02    1.06       1.2  T
   9     -8.5721889 -0.546809E-05  0.966E-03    1.06       3.4  T
  10     -8.5721897 -0.827411E-06  0.411E-03    1.06       8.1  T
  11     -8.5721899 -0.132439E-06  0.117E-03    1.06      28.5  T
  12     -8.5721899 -0.135631E-07  0.817E-05    1.06     408.1  T
  13     -8.5721899  0.525961E-10  0.943E-05    1.06     353.6  T
     SCC iter.                  ...        0 min,  0.002 sec
     gradient                   ...        0 min,  0.000 sec
 * total energy  :    -8.4013708 Eh     change        0.4600356E-03 Eh
   gradient norm :     0.0158865 Eh/α   predicted    -0.1896692E-03 (-141.23%)
   displ. norm   :     0.1345583 α      lambda       -0.8942551E-03
   maximum displ.:     0.0685007 α      in ANC's #12, #8, #10, ...

........................................................................
.............................. CYCLE   24 ..............................
........................................................................
   1     -8.5770346 -0.857703E+01  0.574E-01    1.11       0.0  T
   2     -8.5769465  0.880639E-04  0.396E-01    1.09       1.0  T
   3     -8.5628664  0.140801E-01  0.104E+00    1.32       1.0  T
   4     -8.5767801 -0.139137E-01  0.150E-01    1.07       1.0  T
   5     -8.5770516 -0.271482E-03  0.472E-02    1.10       1.0  T
   6     -8.5770451  0.657397E-05  0.352E-02    1.11       1.0  T
   7     -8.5770553 -0.102657E-04  0.185E-02    1.10       1.8  T
   8     -8.5770574 -0.212641E-05  0.786E-03    1.10       4.2  T
   9     -8.5770579 -0.452674E-06  0.124E-03    1.10      27.0  T
  10     -8.5770579 -0.111693E-07  0.406E-04    1.10      82.2  T
  11     -8.5770579 -0.512948E-09  0.230E-04    1.10     144.9  T
     SCC iter.                  ...        0 min,  0.001 sec
     gradient                   ...        0 min,  0.000 sec
 * total energy  :    -8.4019416 Eh     change       -0.5707695E-03 Eh
   gradient norm :     0.0064234 Eh/α   predicted    -0.4552221E-03 ( -20.24%)
   displ. norm   :     0.0767924 α      lambda       -0.1895957E-03
   maximum displ.:     0.0486686 α      in ANC's #7, #12, #10, ...

........................................................................
.............................. CYCLE   25 ..............................
........................................................................
   1     -8.5769983 -0.857700E+01  0.235E-01    1.12       0.0  T
   2     -8.5766814  0.316938E-03  0.211E-01    1.09       1.0  T
   3     -8.5743299  0.235153E-02  0.483E-01    1.21       1.0  T
   4     -8.5769802 -0.265037E-02  0.597E-02    1.11       1.0  T
   5     -8.5770143 -0.340690E-04  0.249E-02    1.12       1.3  T
   6     -8.5770145 -0.212674E-06  0.113E-02    1.12       3.0  T
   7     -8.5770152 -0.695911E-06  0.554E-03    1.12       6.0  T
   8     -8.5770156 -0.350817E-06  0.173E-03    1.12      19.3  T
   9     -8.5770156 -0.116746E-07  0.172E-04    1.12     193.6  T
  10     -8.5770156 -0.243716E-11  0.878E-05    1.12     379.7  T
     SCC iter.                  ...        0 min,  0.001 sec
     gradient                   ...        0 min,  0.000 sec
 * total energy  :    -8.4020364 Eh     change       -0.9486318E-04 Eh
   gradient norm :     0.0038884 Eh/α   predicted    -0.9535821E-04 (   0.52%)
   displ. norm   :     0.0873324 α      lambda       -0.1016953E-03
   maximum displ.:     0.0525650 α      in ANC's #3, #12, #9, ...

........................................................................
.............................. CYCLE   26 ..............................
........................................................................
   1     -8.5793329 -0.857933E+01  0.271E-01    1.13       0.0  T
   2     -8.5790710  0.261906E-03  0.212E-01    1.10       1.0  T
   3     -8.5746636  0.440739E-02  0.622E-01    1.26       1.0  T
   4     -8.5793277 -0.466411E-02  0.493E-02    1.13       1.0  T
   5     -8.5793445 -0.168399E-04  0.282E-02    1.13       1.2  T
   6     -8.5793452 -0.627564E-06  0.130E-02    1.13       2.6  T
   7     -8.5793465 -0.131717E-05  0.307E-03    1.13      10.8  T
   8     -8.5793465 -0.542126E-07  0.198E-03    1.13      16.9  T
   9     -8.5793466 -0.275106E-07  0.315E-04    1.13     105.7  T
  10     -8.5793466 -0.883324E-09  0.114E-04    1.13     292.7  T
     SCC iter.                  ...        0 min,  0.002 sec
     gradient                   ...        0 min,  0.000 sec
 * total energy  :    -8.4020606 Eh     change       -0.2419578E-04 Eh
   gradient norm :     0.0053097 Eh/α   predicted    -0.5123526E-04 ( 111.75%)
   displ. norm   :     0.0624521 α      lambda       -0.5052983E-04
   maximum displ.:     0.0378715 α      in ANC's #7, #10, #1, ...

........................................................................
.............................. CYCLE   27 ..............................
........................................................................
   1     -8.5787645 -0.857876E+01  0.145E-01    1.13       0.0  T
   2     -8.5787582  0.636112E-05  0.914E-02    1.12       1.0  T
   3     -8.5778127  0.945517E-03  0.276E-01    1.18       1.0  T
   4     -8.5787616 -0.948909E-03  0.195E-02    1.13       1.7  T
   5     -8.5787643 -0.274549E-05  0.130E-02    1.13       2.6  T
   6     -8.5787654 -0.103718E-05  0.268E-03    1.13      12.5  T
   7     -8.5787654 -0.518912E-07  0.159E-03    1.13      21.0  T
   8     -8.5787654 -0.177124E-07  0.110E-03    1.13      30.3  T
   9     -8.5787654 -0.388644E-08  0.288E-04    1.13     115.9  T
  10     -8.5787654 -0.577948E-09  0.318E-05    1.13    1048.8  T
     SCC iter.                  ...        0 min,  0.001 sec
     gradient                   ...        0 min,  0.000 sec
 * total energy  :    -8.4021027 Eh     change       -0.4211188E-04 Eh
   gradient norm :     0.0026718 Eh/α   predicted    -0.2536255E-04 ( -39.77%)
   displ. norm   :     0.2835333 α      lambda       -0.1215647E-03
   maximum displ.:     0.1869524 α      in ANC's #7, #10, #1, ...

........................................................................
.............................. CYCLE   28 ..............................
........................................................................
   1     -8.5761353 -0.857614E+01  0.690E-01    1.13       0.0  T
   2     -8.5754333  0.701984E-03  0.463E-01    1.07       1.0  T
   3     -8.5451100  0.303233E-01  0.153E+00    1.48       1.0  T
   4     -8.5761221 -0.310121E-01  0.857E-02    1.13       1.0  T
   5     -8.5761332 -0.110773E-04  0.701E-02    1.13       1.0  T
   6     -8.5761554 -0.221608E-04  0.417E-02    1.13       1.0  T
   7     -8.5761690 -0.135971E-04  0.118E-02    1.12       2.8  T
   8     -8.5761691 -0.126166E-06  0.101E-02    1.12       3.3  T
   9     -8.5761699 -0.842133E-06  0.301E-03    1.12      11.1  T
  10     -8.5761700 -0.732859E-07  0.152E-03    1.12      21.9  T
  11     -8.5761700 -0.184802E-07  0.547E-04    1.12      61.0  T
  12     -8.5761700 -0.298918E-08  0.442E-05    1.12     754.6  T
     SCC iter.                  ...        0 min,  0.001 sec
     gradient                   ...        0 min,  0.000 sec
 * total energy  :    -8.4021706 Eh     change       -0.6783033E-04 Eh
   gradient norm :     0.0049727 Eh/α   predicted    -0.6566930E-04 (  -3.19%)
   displ. norm   :     0.1634072 α      lambda       -0.7210877E-04
   maximum displ.:     0.0947836 α      in ANC's #7, #10, #9, ...

........................................................................
.............................. CYCLE   29 ..............................
........................................................................
   1     -8.5765469 -0.857655E+01  0.368E-01    1.12       0.0  T
   2     -8.5763644  0.182511E-03  0.247E-01    1.09       1.0  T
   3     -8.5665850  0.977937E-02  0.867E-01    1.32       1.0  T
   4     -8.5765517 -0.996665E-02  0.356E-02    1.12       1.0  T
   5     -8.5765468  0.490784E-05  0.346E-02    1.12       1.0  T
   6     -8.5765556 -0.879370E-05  0.116E-02    1.12       2.9  T
   7     -8.5765564 -0.791216E-06  0.542E-03    1.12       6.2  T
   8     -8.5765566 -0.256600E-06  0.345E-03    1.12       9.7  T
   9     -8.5765567 -0.463800E-07  0.894E-04    1.12      37.3  T
  10     -8.5765567 -0.593085E-08  0.404E-04    1.12      82.5  T
     SCC iter.                  ...        0 min,  0.001 sec
     gradient                   ...        0 min,  0.000 sec
 * total energy  :    -8.4022339 Eh     change       -0.6329822E-04 Eh
   gradient norm :     0.0040104 Eh/α   predicted    -0.3701829E-04 ( -41.52%)
   displ. norm   :     0.5181575 α      lambda       -0.2024311E-03
   maximum displ.:     0.3118851 α      in ANC's #7, #10, #9, ...

........................................................................
.............................. CYCLE   30 ..............................
........................................................................
   1     -8.5758222 -0.857582E+01  0.115E+00    1.14       0.0  T
   2     -8.5731677  0.265447E-02  0.815E-01    1.03       1.0  T
   3     -8.5022234  0.709443E-01  0.227E+00    1.67       1.0  T
   4     -8.5757233 -0.734999E-01  0.172E-01    1.15       1.0  T
   5     -8.5758394 -0.116103E-03  0.119E-01    1.14       1.0  T
   6     -8.5758726 -0.332305E-04  0.782E-02    1.14       1.0  T
   7     -8.5759276 -0.549207E-04  0.347E-02    1.12       1.0  T
   8     -8.5759374 -0.987461E-05  0.150E-02    1.12       2.2  T
   9     -8.5759382 -0.776063E-06  0.114E-02    1.13       2.9  T
  10     -8.5759394 -0.121720E-05  0.512E-03    1.13       6.5  T
  11     -8.5759397 -0.249360E-06  0.998E-04    1.13      33.4  T
  12     -8.5759397 -0.871483E-08  0.307E-04    1.13     108.5  T
     SCC iter.                  ...        0 min,  0.001 sec
     gradient                   ...        0 min,  0.000 sec
 * total energy  :    -8.4023937 Eh     change       -0.1597959E-03 Eh
   gradient norm :     0.0071874 Eh/α   predicted    -0.1283891E-03 ( -19.65%)
   displ. norm   :     0.5678852 α      lambda       -0.3338765E-03
   maximum displ.:     0.2895146 α      in ANC's #7, #6, #3, ...

........................................................................
.............................. CYCLE   31 ..............................
........................................................................
   1     -8.5784645 -0.857846E+01  0.105E+00    1.14       0.0  T
   2     -8.5781691  0.295365E-03  0.684E-01    1.10       1.0  T
   3     -8.5394474  0.387217E-01  0.162E+00    1.52       1.0  T
   4     -8.5784221 -0.389747E-01  0.103E-01    1.12       1.0  T
   5     -8.5784485 -0.264071E-04  0.825E-02    1.14       1.0  T
   6     -8.5785001 -0.516513E-04  0.265E-02    1.13       1.3  T
   7     -8.5785024 -0.223330E-05  0.116E-02    1.13       2.9  T
   8     -8.5785027 -0.274808E-06  0.761E-03    1.13       4.4  T
   9     -8.5785029 -0.202536E-06  0.426E-03    1.13       7.8  T
  10     -8.5785030 -0.143841E-06  0.202E-03    1.13      16.5  T
  11     -8.5785030 -0.354766E-07  0.330E-04    1.13     100.9  T
  12     -8.5785030 -0.948784E-09  0.610E-05    1.13     546.5  T
     SCC iter.                  ...        0 min,  0.002 sec
     gradient                   ...        0 min,  0.000 sec
 * total energy  :    -8.4026967 Eh     change       -0.3030159E-03 Eh
   gradient norm :     0.0056141 Eh/α   predicted    -0.2207725E-03 ( -27.14%)
   displ. norm   :     0.8941367 α      lambda       -0.6109948E-03
   maximum displ.:     0.4539615 α      in ANC's #7, #6, #3, ...

........................................................................
.............................. CYCLE   32 ..............................
........................................................................
   1     -8.5706701 -0.857067E+01  0.169E+00    1.17       0.0  T
   2     -8.5675075  0.316265E-02  0.118E+00    1.05       1.0  T
   3     -8.4410886  0.126419E+00  0.286E+00    1.88       1.0  T
   4     -8.5703943 -0.129306E+00  0.238E-01    1.16       1.0  T
   5     -8.5707654 -0.371112E-03  0.143E-01    1.17       1.0  T
   6     -8.5708330 -0.676001E-04  0.101E-01    1.16       1.0  T
   7     -8.5708703 -0.373154E-04  0.382E-02    1.15       1.0  T
   8     -8.5708776 -0.732968E-05  0.242E-02    1.15       1.4  T
   9     -8.5708784 -0.809609E-06  0.170E-02    1.15       2.0  T
  10     -8.5708809 -0.242080E-05  0.694E-03    1.15       4.8  T
  11     -8.5708812 -0.333521E-06  0.356E-03    1.15       9.4  T
  12     -8.5708813 -0.131986E-06  0.410E-04    1.15      81.3  T
  13     -8.5708813 -0.334506E-10  0.290E-04    1.15     115.1  T
     SCC iter.                  ...        0 min,  0.002 sec
     gradient                   ...        0 min,  0.000 sec
 * total energy  :    -8.4029473 Eh     change       -0.2506029E-03 Eh
   gradient norm :     0.0187342 Eh/α   predicted    -0.5497287E-03 ( 119.36%)
   displ. norm   :     0.2342396 α      lambda       -0.1136583E-02
   maximum displ.:     0.1334249 α      in ANC's #9, #6, #8, ...

........................................................................
.............................. CYCLE   33 ..............................
........................................................................
   1     -8.5767153 -0.857672E+01  0.498E-01    1.18       0.0  T
   2     -8.5761236  0.591673E-03  0.356E-01    1.23       1.0  T
   3     -8.5533651  0.227586E-01  0.128E+00    0.95       1.0  T
   4     -8.5763527 -0.229877E-01  0.175E-01    1.18       1.0  T
   5     -8.5767646 -0.411904E-03  0.487E-02    1.18       1.0  T
   6     -8.5767676 -0.293819E-05  0.402E-02    1.18       1.0  T
   7     -8.5767709 -0.331643E-05  0.299E-02    1.19       1.1  T
   8     -8.5767822 -0.113509E-04  0.406E-03    1.19       8.2  T
   9     -8.5767823 -0.981079E-07  0.162E-03    1.19      20.6  T
  10     -8.5767823 -0.174063E-07  0.421E-04    1.19      79.2  T
  11     -8.5767823  0.642721E-09  0.268E-04    1.19     124.3  T
     SCC iter.                  ...        0 min,  0.001 sec
     gradient                   ...        0 min,  0.000 sec
 * total energy  :    -8.4033393 Eh     change       -0.3919857E-03 Eh
   gradient norm :     0.0155619 Eh/α   predicted    -0.5994721E-03 (  52.93%)
   displ. norm   :     0.6429169 α      lambda       -0.2769008E-02
   maximum displ.:     0.2818584 α      in ANC's #7, #3, #10, ...

........................................................................
.............................. CYCLE   34 ..............................
........................................................................
   1     -8.5705782 -0.857058E+01  0.144E+00    1.00       0.0  T
   2     -8.5696242  0.953949E-03  0.972E-01    0.94       1.0  T
   3     -8.5003097  0.693145E-01  0.220E+00    1.62       1.0  T
   4     -8.5666772 -0.663675E-01  0.565E-01    0.94       1.0  T
   5     -8.5703905 -0.371332E-02  0.234E-01    1.04       1.0  T
   6     -8.5708295 -0.439023E-03  0.125E-01    1.02       1.0  T
   7     -8.5708150  0.145088E-04  0.998E-02    1.02       1.0  T
   8     -8.5709116 -0.965509E-04  0.260E-02    1.01       1.3  T
   9     -8.5709163 -0.469795E-05  0.524E-03    1.01       6.4  T
  10     -8.5709158  0.456820E-06  0.639E-03    1.01       5.2  T
  11     -8.5709163 -0.452876E-06  0.232E-03    1.01      14.4  T
  12     -8.5709163 -0.265252E-07  0.166E-03    1.01      20.1  T
  13     -8.5709163 -0.300459E-07  0.213E-04    1.01     156.9  T
  14     -8.5709163 -0.470301E-09  0.461E-05    1.01     723.2  T
     SCC iter.                  ...        0 min,  0.003 sec
     gradient                   ...        0 min,  0.001 sec
 * total energy  :    -8.4012606 Eh     change        0.2078697E-02 Eh
   gradient norm :     0.0401208 Eh/α   predicted    -0.1956769E-02 (-194.13%)
   displ. norm   :     0.2890272 α      lambda       -0.3550369E-02
   maximum displ.:     0.1705261 α      in ANC's #9, #13, #7, ...

........................................................................
.............................. CYCLE   35 ..............................
........................................................................
   1     -8.5777373 -0.857774E+01  0.911E-01    1.13       0.0  T
   2     -8.5775908  0.146547E-03  0.607E-01    1.16       1.0  T
   3     -8.5479889  0.296019E-01  0.140E+00    0.85       1.0  T
   4     -8.5751366 -0.271477E-01  0.440E-01    1.20       1.0  T
   5     -8.5778222 -0.268563E-02  0.799E-02    1.12       1.0  T
   6     -8.5778068  0.154302E-04  0.691E-02    1.11       1.0  T
   7     -8.5778083 -0.150905E-05  0.538E-02    1.11       1.0  T
   8     -8.5778472 -0.389617E-04  0.870E-03    1.12       3.8  T
   9     -8.5778472 -0.111804E-07  0.652E-03    1.12       5.1  T
  10     -8.5778475 -0.269467E-06  0.413E-03    1.12       8.1  T
  11     -8.5778477 -0.212849E-06  0.104E-03    1.12      32.0  T
  12     -8.5778477 -0.114459E-07  0.309E-04    1.12     108.0  T
  13     -8.5778477 -0.118207E-08  0.734E-05    1.12     453.8  T
     SCC iter.                  ...        0 min,  0.002 sec
     gradient                   ...        0 min,  0.000 sec
 * total energy  :    -8.4036842 Eh     change       -0.2423666E-02 Eh
   gradient norm :     0.0166610 Eh/α   predicted    -0.1923474E-02 ( -20.64%)
   displ. norm   :     0.6896126 α      lambda       -0.2449485E-02
   maximum displ.:     0.3890884 α      in ANC's #3, #7, #11, ...

........................................................................
.............................. CYCLE   36 ..............................
........................................................................
   1     -8.5669386 -0.856694E+01  0.142E+00    1.21       0.0  T
   2     -8.5663778  0.560792E-03  0.886E-01    1.18       1.0  T
   3     -8.5286906  0.376872E-01  0.158E+00    1.43       1.0  T
   4     -8.5498481 -0.211576E-01  0.112E+00    0.98       1.0  T
   5     -8.5672132 -0.173651E-01  0.189E-01    1.15       1.0  T
   6     -8.5675352 -0.322042E-03  0.681E-02    1.17       1.0  T
   7     -8.5675934 -0.581624E-04  0.248E-02    1.18       1.3  T
   8     -8.5675953 -0.188321E-05  0.110E-02    1.18       3.0  T
   9     -8.5675957 -0.411031E-06  0.657E-03    1.17       5.1  T
  10     -8.5675961 -0.446172E-06  0.739E-04    1.18      45.1  T
  11     -8.5675961  0.158796E-07  0.118E-03    1.18      28.3  T
  12     -8.5675961 -0.157825E-07  0.244E-04    1.18     136.9  T
     SCC iter.                  ...        0 min,  0.002 sec
     gradient                   ...        0 min,  0.000 sec
 * total energy  :    -8.4024696 Eh     change        0.1214640E-02 Eh
   gradient norm :     0.0424538 Eh/α   predicted    -0.1807191E-02 (-248.78%)
   displ. norm   :     0.2832585 α      lambda       -0.5214860E-02
   maximum displ.:     0.2318445 α      in ANC's #3, #1, #4, ...

........................................................................
.............................. CYCLE   37 ..............................
........................................................................
   1     -8.5743149 -0.857431E+01  0.715E-01    1.13       0.0  T
   2     -8.5739909  0.323996E-03  0.470E-01    1.16       1.0  T
   3     -8.5481154  0.258755E-01  0.136E+00    0.91       1.0  T
   4     -8.5707294 -0.226141E-01  0.526E-01    1.26       1.0  T
   5     -8.5741955 -0.346603E-02  0.156E-01    1.17       1.0  T
   6     -8.5743924 -0.196896E-03  0.843E-02    1.16       1.0  T
   7     -8.5744269 -0.344961E-04  0.542E-02    1.16       1.0  T
   8     -8.5744582 -0.313652E-04  0.194E-02    1.15       1.7  T
   9     -8.5744607 -0.246323E-05  0.954E-03    1.15       3.5  T
  10     -8.5744616 -0.921468E-06  0.908E-04    1.15      36.7  T
  11     -8.5744616 -0.221394E-08  0.276E-04    1.15     120.7  T
     SCC iter.                  ...        0 min,  0.001 sec
     gradient                   ...        0 min,  0.000 sec
 * total energy  :    -8.4045013 Eh     change       -0.2031737E-02 Eh
   gradient norm :     0.0134699 Eh/α   predicted    -0.2816636E-02 (  38.63%)
   displ. norm   :     0.5847999 α      lambda       -0.9608268E-03
   maximum displ.:     0.2954697 α      in ANC's #6, #9, #8, ...

........................................................................
.............................. CYCLE   38 ..............................
........................................................................
   1     -8.5701797 -0.857018E+01  0.109E+00    1.05       0.0  T
   2     -8.5650571  0.512267E-02  0.896E-01    1.18       1.0  T
   3     -8.4672239  0.978332E-01  0.278E+00    0.65       1.0  T
   4     -8.5681694 -0.100946E+00  0.504E-01    1.14       1.0  T
   5     -8.5704588 -0.228938E-02  0.175E-01    1.09       1.0  T
   6     -8.5705207 -0.619199E-04  0.142E-01    1.09       1.0  T
   7     -8.5706826 -0.161861E-03  0.748E-02    1.08       1.0  T
   8     -8.5707237 -0.411497E-04  0.137E-02    1.07       2.4  T
   9     -8.5707239 -0.119930E-06  0.488E-03    1.07       6.8  T
  10     -8.5707232  0.618303E-06  0.782E-03    1.07       4.3  T
  11     -8.5707239 -0.704716E-06  0.131E-03    1.07      25.4  T
  12     -8.5707240 -0.164987E-07  0.351E-04    1.07      95.0  T
  13     -8.5707240 -0.596591E-09  0.218E-04    1.07     153.1  T
     SCC iter.                  ...        0 min,  0.002 sec
     gradient                   ...        0 min,  0.000 sec
 * total energy  :    -8.4021468 Eh     change        0.2354567E-02 Eh
   gradient norm :     0.0369851 Eh/α   predicted    -0.6447205E-03 (-127.38%)
   displ. norm   :     0.2999568 α      lambda       -0.4611990E-02
   maximum displ.:     0.1948521 α      in ANC's #9, #6, #8, ...

........................................................................
.............................. CYCLE   39 ..............................
........................................................................
   1     -8.5766735 -0.857667E+01  0.764E-01    1.16       0.0  T
   2     -8.5710452  0.562826E-02  0.757E-01    1.03       1.0  T
   3     -8.5548099  0.162353E-01  0.129E+00    1.41       1.0  T
   4     -8.5759996 -0.211896E-01  0.324E-01    1.13       1.0  T
   5     -8.5770251 -0.102550E-02  0.740E-02    1.14       1.0  T
   6     -8.5770260 -0.923392E-06  0.602E-02    1.14       1.0  T
   7     -8.5770079  0.180862E-04  0.531E-02    1.15       1.0  T
   8     -8.5770291 -0.212116E-04  0.108E-02    1.14       3.1  T
   9     -8.5770297 -0.531390E-06  0.380E-03    1.15       8.8  T
  10     -8.5770297 -0.874103E-08  0.328E-03    1.15      10.2  T
  11     -8.5770298 -0.117873E-06  0.435E-04    1.14      76.6  T
  12     -8.5770298 -0.143375E-08  0.131E-04    1.14     255.3  T
     SCC iter.                  ...        0 min,  0.001 sec
     gradient                   ...        0 min,  0.000 sec
 * total energy  :    -8.4044244 Eh     change       -0.2277653E-02 Eh
   gradient norm :     0.0095267 Eh/α   predicted    -0.2513484E-02 (  10.35%)
   displ. norm   :     0.5674743 α      lambda       -0.8014932E-03
   maximum displ.:     0.2760529 α      in ANC's #6, #7, #10, ...

........................................................................
.............................. CYCLE   40 ..............................
........................................................................
   1     -8.5722240 -0.857222E+01  0.774E-01    1.10       0.0  T
   2     -8.5720813  0.142680E-03  0.491E-01    1.13       1.0  T
   3     -8.5375000  0.345814E-01  0.162E+00    0.81       1.0  T
   4     -8.5720399 -0.345400E-01  0.163E-01    1.11       1.0  T
   5     -8.5721483 -0.108412E-03  0.128E-01    1.08       1.0  T
   6     -8.5723308 -0.182453E-03  0.275E-02    1.10       1.2  T
   7     -8.5723249  0.588946E-05  0.289E-02    1.11       1.2  T
   8     -8.5723329 -0.801481E-05  0.143E-02    1.10       2.3  T
   9     -8.5723346 -0.167902E-05  0.475E-03    1.10       7.0  T
  10     -8.5723346 -0.880304E-08  0.237E-03    1.10      14.1  T
  11     -8.5723347 -0.536312E-07  0.734E-04    1.10      45.4  T
  12     -8.5723347 -0.392061E-08  0.132E-04    1.10     251.9  T
     SCC iter.                  ...        0 min,  0.002 sec
     gradient                   ...        0 min,  0.000 sec
 * total energy  :    -8.4047187 Eh     change       -0.2942584E-03 Eh
   gradient norm :     0.0085836 Eh/α   predicted    -0.5298006E-03 (  80.05%)
   displ. norm   :     0.1361668 α      lambda       -0.3452458E-03
   maximum displ.:     0.0806005 α      in ANC's #4, #7, #1, ...

........................................................................
.............................. CYCLE   41 ..............................
........................................................................
   1     -8.5723502 -0.857235E+01  0.353E-01    1.13       0.0  T
   2     -8.5718759  0.474311E-03  0.277E-01    1.08       1.0  T
   3     -8.5651992  0.667669E-02  0.712E-01    1.27       1.0  T
   4     -8.5722035 -0.700427E-02  0.139E-01    1.10       1.0  T
[...]
.............................. CYCLE   59 ..............................
........................................................................
   1     -8.5738821 -0.857388E+01  0.153E-01    1.07       0.0  T
   2     -8.5738521  0.299774E-04  0.114E-01    1.06       1.0  T
   3     -8.5724765  0.137562E-02  0.352E-01    1.14       1.0  T
   4     -8.5738793 -0.140280E-02  0.254E-02    1.07       1.3  T
   5     -8.5738827 -0.339784E-05  0.125E-02    1.07       2.7  T
   6     -8.5738838 -0.113595E-05  0.274E-03    1.07      12.2  T
   7     -8.5738838 -0.208020E-07  0.163E-03    1.07      20.5  T
   8     -8.5738839 -0.151731E-07  0.113E-03    1.07      29.4  T
   9     -8.5738839 -0.254069E-08  0.393E-04    1.07      84.8  T
  10     -8.5738839 -0.100353E-08  0.144E-04    1.07     230.7  T
     SCC iter.                  ...        0 min,  0.003 sec
     gradient                   ...        0 min,  0.000 sec
 * total energy  :    -8.4054277 Eh     change       -0.6527757E-05 Eh
   gradient norm :     0.0007781 Eh/α   predicted    -0.2959764E-05 ( -54.66%)
   displ. norm   :     0.0884412 α      lambda       -0.7063583E-05
   maximum displ.:     0.0549215 α      in ANC's #5, #1, #8, ...

........................................................................
.............................. CYCLE   60 ..............................
........................................................................
   1     -8.5739626 -0.857396E+01  0.194E-01    1.07       0.0  T
   2     -8.5739197  0.429069E-04  0.142E-01    1.06       1.0  T
   3     -8.5717658  0.215383E-02  0.444E-01    1.16       1.0  T
   4     -8.5739544 -0.218856E-02  0.362E-02    1.07       1.0  T
   5     -8.5739654 -0.110403E-04  0.160E-02    1.07       2.1  T
   6     -8.5739656 -0.189322E-06  0.609E-03    1.07       5.5  T
   7     -8.5739654  0.184955E-06  0.615E-03    1.07       5.4  T
   8     -8.5739658 -0.345965E-06  0.279E-03    1.07      11.9  T
   9     -8.5739658 -0.534060E-07  0.748E-04    1.07      44.6  T
  10     -8.5739658 -0.373900E-08  0.939E-05    1.07     355.0  T
     SCC iter.                  ...        0 min,  0.004 sec
     gradient                   ...        0 min,  0.001 sec
 * total energy  :    -8.4054357 Eh     change       -0.7980376E-05 Eh
   gradient norm :     0.0010813 Eh/α   predicted    -0.3542090E-05 ( -55.61%)
   displ. norm   :     0.1319558 α      lambda       -0.8288419E-05
   maximum displ.:     0.0849813 α      in ANC's #5, #1, #2, ...

........................................................................
.............................. CYCLE   61 ..............................
........................................................................
   1     -8.5739422 -0.857394E+01  0.272E-01    1.08       0.0  T
   2     -8.5738451  0.970369E-04  0.201E-01    1.05       1.0  T
   3     -8.5697467  0.409841E-02  0.613E-01    1.20       1.0  T
   4     -8.5739333 -0.418659E-02  0.433E-02    1.07       1.0  T
   5     -8.5739467 -0.134144E-04  0.215E-02    1.07       1.6  T
   6     -8.5739478 -0.110596E-05  0.599E-03    1.07       5.6  T
   7     -8.5739476  0.245923E-06  0.595E-03    1.07       5.6  T
   8     -8.5739479 -0.340475E-06  0.287E-03    1.07      11.6  T
   9     -8.5739479 -0.407745E-07  0.111E-03    1.08      29.9  T
  10     -8.5739480 -0.887865E-08  0.336E-04    1.08      99.3  T
  11     -8.5739480 -0.110166E-08  0.537E-05    1.08     620.6  T
     SCC iter.                  ...        0 min,  0.002 sec
     gradient                   ...        0 min,  0.001 sec
 * total energy  :    -8.4054438 Eh     change       -0.8087634E-05 Eh
   gradient norm :     0.0008818 Eh/α   predicted    -0.4177346E-05 ( -48.35%)
   displ. norm   :     0.1170600 α      lambda       -0.5397460E-05
   maximum displ.:     0.0762302 α      in ANC's #5, #1, #2, ...

........................................................................
.............................. CYCLE   62 ..............................
........................................................................
   1     -8.5739850 -0.857399E+01  0.241E-01    1.08       0.0  T
   2     -8.5739013  0.837554E-04  0.180E-01    1.06       1.0  T
   3     -8.5707236  0.317764E-02  0.543E-01    1.18       1.0  T
   4     -8.5739816 -0.325799E-02  0.368E-02    1.07       1.0  T
   5     -8.5739887 -0.712242E-05  0.198E-02    1.07       1.7  T
   6     -8.5739902 -0.145388E-05  0.458E-03    1.07       7.3  T
   7     -8.5739902 -0.962470E-08  0.256E-03    1.07      13.0  T
   8     -8.5739902 -0.343694E-07  0.906E-04    1.07      36.8  T
   9     -8.5739902 -0.203335E-08  0.750E-04    1.08      44.5  T
     SCC iter.                  ...        0 min,  0.016 sec
     gradient                   ...        0 min,  0.004 sec
 * total energy  :    -8.4054471 Eh     change       -0.3362001E-05 Eh
   gradient norm :     0.0005085 Eh/α   predicted    -0.2714207E-05 ( -19.27%)
   displ. norm   :     0.0278060 α      lambda       -0.1906920E-05
   maximum displ.:     0.0146279 α      in ANC's #5, #2, #6, ...

   *** GEOMETRY OPTIMIZATION CONVERGED AFTER 62 ITERATIONS ***

------------------------------------------------------------------------
 total energy gain   :        -0.4507896 Eh     -282.8747 kcal/mol
 total RMSD          :         2.0610839 a0        1.0907 Å
 total power (kW/mol):       -19.0894809 (step)-5868.0365 (real)
------------------------------------------------------------------------

 ANCopt (total)                0 d,  0 h,  0 min,  0.202 sec
 optimizer setup                ...        0 min,  0.000 sec (  0.011%)
 model hessian                  ...        0 min,  0.000 sec (  0.164%)
 ANC generation                 ...        0 min,  0.000 sec (  0.081%)
 coordinate transformation      ...        0 min,  0.000 sec (  0.072%)
 single point calculation       ...        0 min,  0.196 sec ( 97.071%)
 optimization log               ...        0 min,  0.002 sec (  0.811%)
 hessian update                 ...        0 min,  0.002 sec (  0.782%)
 rational function              ...        0 min,  0.001 sec (  0.519%)

================
 final structure:
================
9
 xtb: 6.5.1 (conda-forge)
Be           0.54660917765187        0.27366680117748        0.59665461482605
B            1.97490222273419        0.05474711548529        1.41678405011271
C            3.37642648975177        0.46631021561081        2.03018549360258
C            2.86347220466432       -0.74797659308898        2.31450456325186
H            3.03016509976825       -1.65850769991301        2.85433471656190
H            3.88582366431220        1.73350805155296        3.28807034842330
H            4.01998266365113        2.25655602098180        3.92679192709867
H            1.99847524500126        0.33434577367267        4.92256189199986
H            1.69014323248254        0.08828731448750        5.59461239411394

 Bond Distances (Angstroems)
 ---------------------------
Be1-B2=1.6615        B2-Be1=1.6615        B2-C3=1.5843         B2-C4=1.4966         C3-B2=1.5843         C3-C4=1.3485         
C4-B2=1.4966         C4-C3=1.3485         C4-H5=1.0716         H5-C4=1.0716         H8-H9=0.7793         H9-H8=0.7793         
 H  H  Rav=0.7793 sigma=0.0000  Rmin=0.7793  Rmax=0.7793     1
 B  Be Rav=1.6615 sigma=0.0000  Rmin=1.6615  Rmax=1.6615     1
 C  H  Rav=1.0716 sigma=0.0000  Rmin=1.0716  Rmax=1.0716     1
 C  B  Rav=1.5404 sigma=0.0438  Rmin=1.4966  Rmax=1.5843     2
 C  C  Rav=1.3485 sigma=0.0000  Rmin=1.3485  Rmax=1.3485     1

 selected bond angles (degree)
 --------------------
C3-B2-Be1=156.54               C4-B2-Be1=151.30               C4-B2-C3= 51.82                C4-C3-B2= 60.74                
C3-C4-B2= 67.44                H5-C4-B2=148.24                H5-C4-C3=144.31                

 selected dihedral angles (degree)
 ---------------------------------
C4-C3-B2-Be1=172.33           C3-C4-B2-Be1=186.35           H5-C4-B2-Be1=  5.71           H5-C4-B2-C3=179.36            
H5-C4-C3-B2=180.58            

 CMA Distance (Angstroems)
 ---------------------------
R(CMA):  2.7746
           -------------------------------------------------
          |                Final Singlepoint                |
           -------------------------------------------------

          ...................................................
          :                      SETUP                      :
          :.................................................:
          :  # basis functions                  21          :
          :  # atomic orbitals                  21          :
          :  # shells                           13          :
          :  # electrons                        18          :
          :  max. iterations                   250          :
          :  Hamiltonian                  GFN2-xTB          :
          :  restarted?                      false          :
          :  GBSA solvation                  false          :
          :  PC potential                    false          :
          :  electronic temp.          300.0000000     K    :
          :  accuracy                    1.0000000          :
          :  -> integral cutoff          0.2500000E+02      :
          :  -> integral neglect         0.1000000E-07      :
          :  -> SCF convergence          0.1000000E-05 Eh   :
          :  -> wf. convergence          0.1000000E-03 e    :
          :  Broyden damping             0.4000000          :
          ...................................................

 iter      E             dE          RMSdq      gap      omega  full diag
   1     -8.5739902 -0.857399E+01  0.189E-04    1.07       0.0  T
   2     -8.5739902  0.876383E-08  0.896E-04    1.07      37.2  T
   3     -8.5739902 -0.908320E-08  0.544E-05    1.07     613.1  T

   *** convergence criteria satisfied after 3 iterations ***

         #    Occupation            Energy/Eh            Energy/eV
      -------------------------------------------------------------
         1        2.0000           -0.5448007             -14.8248
       ...           ...                  ...                  ...
         3        2.0000           -0.4469292             -12.1616
         4        2.0000           -0.4233877             -11.5210
         5        2.0000           -0.4060350             -11.0488
         6        2.0000           -0.3631101              -9.8807
         7        2.0000           -0.3552753              -9.6675
         8        2.0000           -0.3269859              -8.8977
         9        2.0000           -0.2724458              -7.4136 (HOMO)
        10                         -0.2329439              -6.3387 (LUMO)
        11                         -0.2304124              -6.2698
        12                         -0.1865063              -5.0751
        13                         -0.1401195              -3.8128
        14                         -0.0640461              -1.7428
       ...                                ...                  ...
        21                          0.7792084              21.2033
      -------------------------------------------------------------
                  HL-Gap            0.0395019 Eh            1.0749 eV
             Fermi-level           -0.2527268 Eh           -6.8770 eV

 SCC (total)                   0 d,  0 h,  0 min,  0.005 sec
 SCC setup                      ...        0 min,  0.000 sec (  8.193%)
 Dispersion                     ...        0 min,  0.000 sec (  2.632%)
 classical contributions        ...        0 min,  0.000 sec (  0.870%)
 integral evaluation            ...        0 min,  0.000 sec (  2.460%)
 iterations                     ...        0 min,  0.002 sec ( 41.731%)
 molecular gradient             ...        0 min,  0.002 sec ( 43.259%)
 printout                       ...        0 min,  0.000 sec (  0.678%)

         :::::::::::::::::::::::::::::::::::::::::::::::::::::
         ::                     SUMMARY                     ::
         :::::::::::::::::::::::::::::::::::::::::::::::::::::
         :: total energy              -8.405447130421 Eh    ::
         :: gradient norm              0.000510921347 Eh/a0 ::
         :: HOMO-LUMO gap              1.074900980328 eV    ::
         ::.................................................::
         :: SCC energy                -8.573990229434 Eh    ::
         :: -> isotropic ES           -0.003609551388 Eh    ::
         :: -> anisotropic ES          0.021590134940 Eh    ::
         :: -> anisotropic XC          0.002303683384 Eh    ::
         :: -> dispersion             -0.003886062426 Eh    ::
         :: repulsion energy           0.168534737624 Eh    ::
         :: add. restraining           0.000000000000 Eh    ::
         :: total charge              -0.000000000130 e     ::
         :::::::::::::::::::::::::::::::::::::::::::::::::::::

           -------------------------------------------------
          |                Property Printout                |
           -------------------------------------------------

    * Orbital Energies and Occupations

         #    Occupation            Energy/Eh            Energy/eV
      -------------------------------------------------------------
         1        2.0000           -0.5448007             -14.8248
         2        2.0000           -0.4711673             -12.8211
         3        2.0000           -0.4469292             -12.1616
         4        2.0000           -0.4233877             -11.5210
         5        2.0000           -0.4060350             -11.0488
         6        2.0000           -0.3631101              -9.8807
         7        2.0000           -0.3552753              -9.6675
         8        2.0000           -0.3269859              -8.8977
         9        2.0000           -0.2724458              -7.4136 (HOMO)
        10                         -0.2329439              -6.3387 (LUMO)
        11                         -0.2304124              -6.2698
        12                         -0.1865063              -5.0751
        13                         -0.1401195              -3.8128
        14                         -0.0640461              -1.7428
        15                          0.1052221               2.8632
        16                          0.1443830               3.9289
        17                          0.1835700               4.9952
        18                          0.2197369               5.9793
        19                          0.4667207              12.7001
        20                          0.7190226              19.5656
        21                          0.7792084              21.2033
      -------------------------------------------------------------
                  HL-Gap            0.0395019 Eh            1.0749 eV
             Fermi-level           -0.2527268 Eh           -6.8770 eV

     #   Z          covCN         q      C6AA      α(0)
     1   4 Be       0.912     0.367    67.025    24.555
     2   5 B        2.715     0.025    21.176     7.714
     3   6 C        1.880    -0.246    38.473    10.018
     4   6 C        2.812    -0.078    29.927     8.963
     5   1 H        0.926    -0.019     3.406     2.886
     6   1 H        0.573     0.035     3.209     2.959
     7   1 H        0.572    -0.082     6.347     4.163
     8   1 H        0.806     0.014     2.882     2.666
     9   1 H        0.806    -0.016     3.412     2.901

 Mol. C6AA /au·bohr⁶  :       1089.485353
 Mol. C8AA /au·bohr⁸  :      29984.925635
 Mol. α(0) /au        :         66.825593


Wiberg/Mayer (AO) data.
largest (>0.10) Wiberg bond orders for each atom

 ---------------------------------------------------------------------------
     #   Z sym  total        # sym  WBO       # sym  WBO       # sym  WBO
 ---------------------------------------------------------------------------
     1   4 Be   1.905 --     2 B    1.398     3 C    0.322     4 C    0.155
     2   5 B    3.511 --     1 Be   1.398     4 C    1.168     3 C    0.926
     3   6 C    3.071 --     4 C    1.652     2 B    0.926     1 Be   0.322
     4   6 C    3.957 --     3 C    1.652     2 B    1.168     5 H    0.963
                             1 Be   0.155
     5   1 H    1.000 --     4 C    0.963
     6   1 H    0.999 --     7 H    0.897
     7   1 H    0.993 --     6 H    0.897
     8   1 H    1.000 --     9 H    0.997
     9   1 H    1.000 --     8 H    0.997
 ---------------------------------------------------------------------------

Topologies differ in total number of bonds
Writing topology from bond orders to xtbtopo.mol

molecular dipole:
                 x           y           z       tot (Debye)
 q only:       -1.991      -0.086      -1.340
   full:       -3.171      -0.366      -1.730       9.229
molecular quadrupole (traceless):
                xx          xy          yy          xz          yz          zz
 q only:       -9.808      -3.067      10.349     -16.299      -2.478      -0.541
  q+dip:      -14.306      -8.331      12.499     -17.322      -6.469       1.806
   full:      -14.901      -9.517      11.511     -19.385      -4.693       3.390

           -------------------------------------------------
          |                Geometry Summary                 |
           -------------------------------------------------

      molecular mass/u    :       48.8843867
   center of mass at/Å    :        2.3721965       0.0501438       1.9152706
  moments of inertia/u·Å² :        0.4238686E+02   0.1017384E+03   0.1036193E+03
rotational constants/cm⁻¹ :        0.3977089E+00   0.1656958E+00   0.1626882E+00

 * 5 selected distances

     #   Z          #   Z                                           value/Å
     1   4 Be       2   5 B                                       1.6614932 (max)
     2   5 B        4   6 C                                       1.4966043
     3   6 C        4   6 C                                       1.3485000
     4   6 C        5   1 H                                       1.0715737
     8   1 H        9   1 H                                       0.7792723 (min)

 * 5 distinct bonds (by element types)

   Z      Z             #   av. dist./Å        max./Å        min./Å
   1 H    1 H           1     0.7792723     0.7792723     0.7792723
   4 Be   5 B           1     1.6614932     1.6614932     1.6614932
   1 H    6 C           1     1.0715737     1.0715737     1.0715737
   5 B    6 C           1     1.4966043     1.4966043     1.4966043
   6 C    6 C           1     1.3485000     1.3485000     1.3485000


optimized geometry written to: xtbopt.xyz


           -------------------------------------------------
          | TOTAL ENERGY               -8.405447130421 Eh   |
          | GRADIENT NORM               0.000510921347 Eh/α |
          | HOMO-LUMO GAP               1.074900980328 eV   |
           -------------------------------------------------
########################################################################
[WARNING] Runtime exception occurred
-3- restart_readRestart: Dimension missmatch in restart file.
-2- restart_readRestart: Multiplicity missmatch in restart file.
-1- restart_readRestart: Number of electron missmatch in restart file.
########################################################################
Note: The following floating-point exceptions are signalling: IEEE_UNDERFLOW_FLAG
normal termination of xtb

------------------------------------------------------------------------
 * finished run on 2025/06/07 at 03:27:48.148     
------------------------------------------------------------------------
 total:
 * wall-time:     0 d,  0 h,  0 min,  0.246 sec
 *  cpu-time:     0 d,  0 h,  0 min,  3.344 sec
 * ratio c/w:    13.594 speedup
 SCF:
 * wall-time:     0 d,  0 h,  0 min,  0.036 sec
 *  cpu-time:     0 d,  0 h,  0 min,  0.497 sec
 * ratio c/w:    13.942 speedup
 ANC optimizer:
 * wall-time:     0 d,  0 h,  0 min,  0.207 sec
 *  cpu-time:     0 d,  0 h,  0 min,  2.812 sec
 * ratio c/w:    13.589 speedup

