      -----------------------------------------------------------      
     |                   =====================                   |     
     |                           x T B                           |     
     |                   =====================                   |     
     |                         S. Grimme                         |     
     |          Mulliken Center for Theoretical Chemistry        |     
     |                    University of Bonn                     |     
      -----------------------------------------------------------      

   * xtb version 6.5.1 (conda-forge) compiled by 'runner@Mac-1657629245115.local' on 2022-07-12

   xtb is free software: you can redistribute it and/or modify it under
   the terms of the GNU Lesser General Public License as published by
   the Free Software Foundation, either version 3 of the License, or
   (at your option) any later version.
   
   xtb is distributed in the hope that it will be useful,
   but WITHOUT ANY WARRANTY; without even the implied warranty of
   MERCHANTABILITY or FITNESS FOR A PARTICULAR PURPOSE.  See the
   GNU Lesser General Public License for more details.
   
   Cite this work as:
   * C. Bannwarth, E. Caldeweyher, S. Ehlert, A. Hansen, P. Pracht,
     J. Seibert, S. Spicher, S. Grimme, WIREs Comput. Mol. Sci., 2020, 11,
     e01493. DOI: 10.1002/wcms.1493
   
   for GFN2-xTB:
   * C. Bannwarth, S. Ehlert and S. Grimme., J. Chem. Theory Comput., 2019,
     15, 1652-1671. DOI: 10.1021/acs.jctc.8b01176
   for GFN1-xTB:
   * S. Grimme, C. Bannwarth, P. Shushkov, J. Chem. Theory Comput., 2017,
     13, 1989-2009. DOI: 10.1021/acs.jctc.7b00118
   for GFN0-xTB:
   * P. Pracht, E. Caldeweyher, S. Ehlert, S. Grimme, ChemRxiv, 2019, preprint.
     DOI: 10.26434/chemrxiv.8326202.v1
   for GFN-FF:
   * S. Spicher and S. Grimme, Angew. Chem. Int. Ed., 2020, 59, 15665-15673.
     DOI: 10.1002/anie.202004239
   
   for ALPB and GBSA implicit solvation:
   * S. Ehlert, M. Stahn, S. Spicher, S. Grimme, J. Chem. Theory Comput.,
     2021, 17, 4250-4261. DOI: 10.1021/acs.jctc.1c00471
   
   for DFT-D4:
   * E. Caldeweyher, C. Bannwarth and S. Grimme, J. Chem. Phys., 2017,
     147, 034112. DOI: 10.1063/1.4993215
   * E. Caldeweyher, S. Ehlert, A. Hansen, H. Neugebauer, S. Spicher,
     C. Bannwarth and S. Grimme, J. Chem. Phys., 2019, 150, 154122.
     DOI: 10.1063/1.5090222
   * E. Caldeweyher, J.-M. Mewes, S. Ehlert and S. Grimme, Phys. Chem. Chem. Phys.
     2020, 22, 8499-8512. DOI: 10.1039/D0CP00502A
   
   for sTDA-xTB:
   * S. Grimme and C. Bannwarth, J. Chem. Phys., 2016, 145, 054103.
     DOI: 10.1063/1.4959605
   
   in the mass-spec context:
   * V. Asgeirsson, C. Bauer and S. Grimme, Chem. Sci., 2017, 8, 4879.
     DOI: 10.1039/c7sc00601b
   * J. Koopman and S. Grimme, ACS Omega 2019, 4, 12, 15120-15133.
     DOI: 10.1021/acsomega.9b02011
   
   for metadynamics refer to:
   * S. Grimme, J. Chem. Theory Comput., 2019, 155, 2847-2862
     DOI: 10.1021/acs.jctc.9b00143
   
   for SPH calculations refer to:
   * S. Spicher and S. Grimme, J. Chem. Theory Comput., 2021, 17, 1701-1714
     DOI: 10.1021/acs.jctc.0c01306
   
   with help from (in alphabetical order)
   P. Atkinson, C. Bannwarth, F. Bohle, G. Brandenburg, E. Caldeweyher
   M. Checinski, S. Dohm, S. Ehlert, S. Ehrlich, I. Gerasimov, C. Hölzer
   A. Katbashev, J. Koopman, C. Lavigne, S. Lehtola, F. März, M. Müller,
   F. Musil, H. Neugebauer, J. Pisarek, C. Plett, P. Pracht, F. Pultar,
   J. Seibert, P. Shushkov, S. Spicher, M. Stahn, M. Steiner, T. Strunk,
   J. Stückrath, T. Rose, and J. Unsleber
   
 * started run on 2025/06/07 at 03:27:50.574     

           -------------------------------------------------
          |                Calculation Setup                |
           -------------------------------------------------

          program call               : xtb BBeC4H6.xyz --gfn 2 --opt
          coordinate file            : BBeC4H6.xyz
          omp threads                :                    16

   ID    Z sym.   atoms
    1    4 Be     1
    2    5 B      2
    3    6 C      3-6
    4    1 H      7-12

molecular fragmentation (1/2 indicates fragments):
122222222222
# atoms in fragment 1/2:     1    11
 fragment masses (1/2) :        9.01       64.90
CMA distance (Bohr)    :   8.146
constraining FC (au)   :  0.0500

           -------------------------------------------------
          |                 G F N 2 - x T B                 |
           -------------------------------------------------

        Reference                      10.1021/acs.jctc.8b01176
      * Hamiltonian:
        H0-scaling (s, p, d)           1.850000    2.230000    2.230000
        zeta-weighting                 0.500000
      * Dispersion:
        s8                             2.700000
        a1                             0.520000
        a2                             5.000000
        s9                             5.000000
      * Repulsion:
        kExp                           1.500000    1.000000
        rExp                           1.000000
      * Coulomb:
        alpha                          2.000000
        third order                    shell-resolved
        anisotropic                    true
        a3                             3.000000
        a5                             4.000000
        cn-shift                       1.200000
        cn-exp                         4.000000
        max-rad                        5.000000


          ...................................................
          :                      SETUP                      :
          :.................................................:
          :  # basis functions                  30          :
          :  # atomic orbitals                  30          :
          :  # shells                           18          :
          :  # electrons                        27          :
          :  max. iterations                   250          :
          :  Hamiltonian                  GFN2-xTB          :
          :  restarted?                      false          :
          :  GBSA solvation                  false          :
          :  PC potential                    false          :
          :  electronic temp.          300.0000000     K    :
          :  accuracy                    1.0000000          :
          :  -> integral cutoff          0.2500000E+02      :
          :  -> integral neglect         0.1000000E-07      :
          :  -> SCF convergence          0.1000000E-05 Eh   :
          :  -> wf. convergence          0.1000000E-03 e    :
          :  Broyden damping             0.4000000          :
          ...................................................

 iter      E             dE          RMSdq      gap      omega  full diag
   1     10.3382846  0.103383E+02  0.217E+01    0.37       0.0  T
   2     -8.3673098 -0.187056E+02  0.167E+01    0.40       1.0  T
   3     -5.8769565  0.249035E+01  0.175E+01    0.08       1.0  T
   4     -9.8850655 -0.400811E+01  0.997E+00    0.50       1.0  T
   5    -10.0810889 -0.196023E+00  0.779E+00    0.20       1.0  T
   6     -9.0517945  0.102929E+01  0.127E+01    0.32       1.0  T
   7    -11.2065726 -0.215478E+01  0.997E+00    0.82       1.0  T
   8    -11.2928367 -0.862642E-01  0.921E+00    0.68       1.0  T
   9    -11.0547205  0.238116E+00  0.824E+00    0.52       1.0  T
  10    -11.0678019 -0.130814E-01  0.824E+00    0.52       1.0  T
  11    -11.1807786 -0.112977E+00  0.107E+01    0.60       1.0  T
  12     15.5171784  0.266980E+02  0.365E+01    0.25       1.0  T
  13     11.8598015 -0.365738E+01  0.275E+01    0.19       1.0  T
  14     11.4450218 -0.414780E+00  0.274E+01    0.14       1.0  T
  15     12.4838192  0.103880E+01  0.284E+01    0.29       1.0  T
  16     13.0284783  0.544659E+00  0.291E+01    0.50       1.0  T
  17     11.1275117 -0.190097E+01  0.264E+01    0.62       1.0  T
  18     10.7435983 -0.383913E+00  0.260E+01    0.53       1.0  T
  19      7.6375909 -0.310601E+01  0.220E+01    0.39       1.0  T
  20      7.1289606 -0.508630E+00  0.216E+01    0.34       1.0  T
  21      6.7959799 -0.332981E+00  0.217E+01    0.36       1.0  T
  22      1.3680106 -0.542797E+01  0.162E+01    0.21       1.0  T
  23      9.5507150  0.818270E+01  0.229E+01    0.46       1.0  T
  24     -3.7481274 -0.132988E+02  0.159E+01    0.28       1.0  T
  25     -6.0077158 -0.225959E+01  0.157E+01    0.19       1.0  T
  26     -6.1993552 -0.191639E+00  0.157E+01    0.19       1.0  T
  27     -5.3289523  0.870403E+00  0.156E+01    0.22       1.0  T
  28     -7.3638486 -0.203490E+01  0.159E+01    0.17       1.0  T
  29     -7.2797168  0.841318E-01  0.158E+01    0.17       1.0  T
  30     -9.0199753 -0.174026E+01  0.157E+01    0.27       1.0  T
  31    -10.7745787 -0.175460E+01  0.153E+01    0.18       1.0  T
  32    -10.5817149  0.192864E+00  0.141E+01    0.33       1.0  T
  33    -10.6941343 -0.112419E+00  0.132E+01    0.30       1.0  T
  34    -10.7149946 -0.208603E-01  0.131E+01    0.30       1.0  T
  35    -10.7058345  0.916013E-02  0.128E+01    0.46       1.0  T
  36    -11.3939166 -0.688082E+00  0.879E+00    0.47       1.0  T
  37    -11.7113333 -0.317417E+00  0.722E+00    0.42       1.0  T
  38    -11.8139708 -0.102638E+00  0.707E+00    0.39       1.0  T
  39    -11.8556123 -0.416416E-01  0.742E+00    0.39       1.0  T
  40    -11.8616182 -0.600587E-02  0.805E+00    0.38       1.0  T
  41    -11.9807406 -0.119122E+00  0.806E+00    0.37       1.0  T
  42    -11.9835955 -0.285486E-02  0.814E+00    0.37       1.0  T
  43    -12.0249243 -0.413288E-01  0.798E+00    0.36       1.0  T
  44    -12.3490823 -0.324158E+00  0.564E+00    0.08       1.0  T
  45    -12.3456870  0.339528E-02  0.545E+00    0.08       1.0  T
  46    -12.1232607  0.222426E+00  0.560E+00    0.35       1.0  T
  47    -11.9376782  0.185583E+00  0.645E+00    0.27       1.0  T
  48    -11.2067461  0.730932E+00  0.884E+00    0.34       1.0  T
  49    -11.4628096 -0.256064E+00  0.831E+00    0.31       1.0  T
  50    -11.3712588  0.915508E-01  0.850E+00    0.33       1.0  T
  51    -11.6540338 -0.282775E+00  0.768E+00    0.30       1.0  T
  52    -12.1680451 -0.514011E+00  0.463E+00    0.32       1.0  T
  53    -12.3687003 -0.200655E+00  0.355E+00    0.10       1.0  T
  54    -11.8652053  0.503495E+00  0.707E+00    0.24       1.0  T
  55    -12.3209008 -0.455696E+00  0.357E+00    0.13       1.0  T
  56    -11.4421488  0.878752E+00  0.905E+00    0.25       1.0  T
  57    -12.3101368 -0.867988E+00  0.441E+00    0.12       1.0  T
  58    -12.0194329  0.290704E+00  0.637E+00    0.20       1.0  T
  59    -12.2424063 -0.222973E+00  0.503E+00    0.15       1.0  T
  60    -12.3302200 -0.878137E-01  0.426E+00    0.11       1.0  T
  61    -12.2445814  0.856386E-01  0.328E+00    0.28       1.0  T
  62    -12.3346743 -0.900929E-01  0.327E+00    0.16       1.0  T
  63    -12.2990132  0.356611E-01  0.323E+00    0.21       1.0  T
  64    -12.2356724  0.633408E-01  0.310E+00    0.33       1.0  T
  65    -12.2092548  0.264176E-01  0.305E+00    0.37       1.0  T
  66    -12.2083125  0.942309E-03  0.298E+00    0.38       1.0  T
  67    -12.1849763  0.233362E-01  0.284E+00    0.40       1.0  T
  68    -12.1864858 -0.150950E-02  0.281E+00    0.40       1.0  T
  69    -12.2579854 -0.714995E-01  0.276E+00    0.34       1.0  T
  70    -12.3096152 -0.516298E-01  0.269E+00    0.25       1.0  T
  71    -12.3006401  0.897507E-02  0.259E+00    0.27       1.0  T
  72    -12.2813686  0.192715E-01  0.251E+00    0.32       1.0  T
  73    -12.3100038 -0.286351E-01  0.249E+00    0.27       1.0  T
  74    -12.2842039  0.257999E-01  0.245E+00    0.32       1.0  T
  75    -12.3000856 -0.158817E-01  0.244E+00    0.29       1.0  T
  76    -12.3147096 -0.146239E-01  0.242E+00    0.26       1.0  T
  77    -12.3155084 -0.798889E-03  0.242E+00    0.26       1.0  T
  78    -12.3182691 -0.276069E-02  0.241E+00    0.26       1.0  T
  79    -12.3137553  0.451385E-02  0.237E+00    0.28       1.0  T
  80    -12.3214059 -0.765059E-02  0.233E+00    0.26       1.0  T
  81    -12.2853141  0.360917E-01  0.222E+00    0.34       1.0  T
  82    -12.2867176 -0.140347E-02  0.218E+00    0.34       1.0  T
  83    -12.2854770  0.124065E-02  0.213E+00    0.34       1.0  T
  84    -12.2868451 -0.136814E-02  0.206E+00    0.34       1.0  T
  85    -12.2887711 -0.192595E-02  0.198E+00    0.33       1.0  T
  86    -12.2931244 -0.435335E-02  0.194E+00    0.32       1.0  T
  87    -12.2961875 -0.306314E-02  0.193E+00    0.31       1.0  T
  88    -12.2960167  0.170856E-03  0.193E+00    0.31       1.0  T
  89    -12.3006662 -0.464946E-02  0.191E+00    0.31       1.0  T
  90    -12.3142781 -0.136120E-01  0.185E+00    0.28       1.0  T
  91    -12.3261038 -0.118257E-01  0.181E+00    0.26       1.0  T
  92    -12.3326572 -0.655332E-02  0.179E+00    0.25       1.0  T
  93    -12.3381533 -0.549612E-02  0.177E+00    0.25       1.0  T
  94    -12.3429762 -0.482293E-02  0.171E+00    0.24       1.0  T
  95    -12.3556884 -0.127121E-01  0.161E+00    0.23       1.0  T
  96    -12.3451372  0.105512E-01  0.159E+00    0.25       1.0  T
  97    -12.3607586 -0.156214E-01  0.155E+00    0.22       1.0  T
  98    -12.3504821  0.102765E-01  0.156E+00    0.24       1.0  T
  99    -12.3569192 -0.643712E-02  0.154E+00    0.24       1.0  T
 100    -12.3584010 -0.148179E-02  0.153E+00    0.24       1.0  T
 101    -12.3717412 -0.133401E-01  0.150E+00    0.23       1.0  T
 102    -12.3778406 -0.609944E-02  0.147E+00    0.22       1.0  T
 103    -12.3881791 -0.103385E-01  0.144E+00    0.21       1.0  T
 104    -12.3939941 -0.581508E-02  0.143E+00    0.20       1.0  T
 105    -12.4005092 -0.651507E-02  0.144E+00    0.20       1.0  T
 106    -12.4040986 -0.358937E-02  0.145E+00    0.20       1.0  T
 107    -12.4077627 -0.366414E-02  0.148E+00    0.20       1.0  T
 108    -12.4075964  0.166354E-03  0.148E+00    0.20       1.0  T
 109    -12.4089103 -0.131390E-02  0.151E+00    0.20       1.0  T
 110    -12.4090132 -0.102896E-03  0.150E+00    0.20       1.0  T
 111    -12.4093206 -0.307447E-03  0.151E+00    0.20       1.0  T
 112    -12.4092334  0.872240E-04  0.151E+00    0.20       1.0  T
 113    -12.4093048 -0.714541E-04  0.151E+00    0.20       1.0  T
 114    -12.4093943 -0.894713E-04  0.152E+00    0.20       1.0  T
 115    -12.4096715 -0.277200E-03  0.153E+00    0.20       1.0  T
 116    -12.4098563 -0.184761E-03  0.155E+00    0.20       1.0  T
 117    -12.4099271 -0.707791E-04  0.156E+00    0.20       1.0  T
 118    -12.4099066  0.204819E-04  0.155E+00    0.20       1.0  T
 119    -12.4100642 -0.157649E-03  0.151E+00    0.20       1.0  T
 120    -12.4109448 -0.880558E-03  0.143E+00    0.20       1.0  T
 121    -12.4131155 -0.217068E-02  0.131E+00    0.19       1.0  T
 122    -12.4168930 -0.377754E-02  0.116E+00    0.19       1.0  T
 123    -12.4208001 -0.390711E-02  0.995E-01    0.18       1.0  T
 124    -12.4232127 -0.241259E-02  0.862E-01    0.18       1.0  T
 125    -12.4245587 -0.134604E-02  0.731E-01    0.18       1.0  T
 126    -12.4254354 -0.876661E-03  0.564E-01    0.18       1.0  T
 127    -12.4262210 -0.785594E-03  0.427E-01    0.18       1.0  T
 128    -12.4270383 -0.817305E-03  0.327E-01    0.17       1.0  T
 129    -12.4273218 -0.283478E-03  0.258E-01    0.17       1.0  T
 130    -12.4273406 -0.187928E-04  0.189E-01    0.17       1.0  T
 131    -12.4273096  0.310201E-04  0.112E-01    0.17       1.0  T
 132    -12.4273459 -0.363693E-04  0.387E-02    0.18       1.0  T
 133    -12.4272379  0.108036E-03  0.884E-02    0.17       1.0  T
 134    -12.4273555 -0.117600E-03  0.326E-02    0.17       1.0  T
 135    -12.4272919  0.635659E-04  0.621E-02    0.17       1.0  T
 136    -12.4273509 -0.590233E-04  0.259E-02    0.17       1.1  T
 137    -12.4273461  0.485253E-05  0.282E-02    0.17       1.0  T
 138    -12.4273588 -0.126779E-04  0.150E-02    0.17       1.9  T
 139    -12.4273598 -0.105766E-05  0.109E-02    0.17       2.6  T
 140    -12.4273606 -0.782657E-06  0.685E-03    0.17       4.2  T
 141    -12.4273607 -0.108189E-06  0.505E-03    0.17       5.7  T
 142    -12.4273610 -0.291739E-06  0.253E-03    0.17      11.4  T
 143    -12.4273610 -0.119802E-07  0.166E-03    0.17      17.4  T
 144    -12.4273610  0.204053E-07  0.167E-03    0.17      17.3  T
 145    -12.4273610 -0.140421E-08  0.145E-03    0.17      19.9  T
 146    -12.4273610 -0.196994E-07  0.581E-04    0.17      49.7  T
 147    -12.4273610  0.534437E-08  0.742E-04    0.17      38.9  T

   *** convergence criteria satisfied after 147 iterations ***

         #    Occupation            Energy/Eh            Energy/eV
      -------------------------------------------------------------
         1        2.0000           -0.6016885             -16.3728
       ...           ...                  ...                  ...
         8        2.0000           -0.3835785             -10.4377
         9        2.0000           -0.3574547              -9.7268
        10        2.0000           -0.3376823              -9.1888
        11        2.0000           -0.3305121              -8.9937
        12        2.0000           -0.3270090              -8.8984
        13        1.9935           -0.3022283              -8.2241
        14        0.9727           -0.2926709              -7.9640 (HOMO)
        15        0.0338           -0.2862977              -7.7906 (LUMO)
        16                         -0.2733248              -7.4375
        17                         -0.2676311              -7.2826
        18                         -0.2660739              -7.2402
        19                         -0.2462404              -6.7005
       ...                                ...                  ...
        30                          0.7595638              20.6688
      -------------------------------------------------------------
                  HL-Gap            0.0063732 Eh            0.1734 eV
             Fermi-level           -0.2934672 Eh           -7.9856 eV

 SCC (total)                   0 d,  0 h,  0 min,  0.061 sec
 SCC setup                      ...        0 min,  0.000 sec (  0.134%)
 Dispersion                     ...        0 min,  0.000 sec (  0.142%)
 classical contributions        ...        0 min,  0.000 sec (  0.056%)
 integral evaluation            ...        0 min,  0.000 sec (  0.240%)
 iterations                     ...        0 min,  0.060 sec ( 98.634%)
 molecular gradient             ...        0 min,  0.000 sec (  0.722%)
 printout                       ...        0 min,  0.000 sec (  0.053%)

         :::::::::::::::::::::::::::::::::::::::::::::::::::::
         ::                     SUMMARY                     ::
         :::::::::::::::::::::::::::::::::::::::::::::::::::::
         :: total energy             -12.340947025969 Eh    ::
         :: gradient norm              0.291692659890 Eh/a0 ::
         :: HOMO-LUMO gap              0.173423769880 eV    ::
         ::.................................................::
         :: SCC energy               -12.427361021471 Eh    ::
         :: -> isotropic ES           -0.071698923391 Eh    ::
         :: -> anisotropic ES          0.008350700691 Eh    ::
         :: -> anisotropic XC         -0.013085515095 Eh    ::
         :: -> dispersion             -0.009706888272 Eh    ::
         :: repulsion energy           0.086413104305 Eh    ::
         :: add. restraining           0.000000000000 Eh    ::
         :: total charge              -0.000000000001 e     ::
         :::::::::::::::::::::::::::::::::::::::::::::::::::::

      ----------------------------------------------------------- 
     |                   =====================                   |
     |                        A N C O P T                        |
     |                   =====================                   |
     |               Approximate Normal Coordinate               |
     |                Rational Function Optimizer                |
      ----------------------------------------------------------- 

          ...................................................
          :                      SETUP                      :
          :.................................................:
          :   optimization level            normal          :
          :   max. optcycles                   200          :
          :   ANC micro-cycles                  20          :
          :   degrees of freedom                30          :
          :.................................................:
          :   RF solver                   davidson          :
          :   write xtbopt.log                true          :
          :   linear?                        false          :
          :   energy convergence         0.5000000E-05 Eh   :
          :   grad. convergence          0.1000000E-02 Eh/α :
          :   maximium RF displ.         1.0000000          :
          :   Hlow (freq-cutoff)         0.1000000E-01      :
          :   Hmax (freq-cutoff)         5.0000000          :
          :   S6 in model hess.         20.0000000          :
          ...................................................

generating ANC from model Hessian ...
Using Lindh-Hessian (1995)
 Shifting diagonal of input Hessian by    1.5324377760789105E-002
 Lowest  eigenvalues of input Hessian
    0.010000    0.014754    0.015063    0.000000    0.000000    0.000000
    0.000000    0.000000    0.000000    0.015390    0.015535    0.015666
    0.016015    0.016492    0.016897    0.017125    0.017926    0.018295
 Highest eigenvalues
    0.239701    0.259038    0.273406    0.326453    0.382132    0.416190


........................................................................
.............................. CYCLE    1 ..............................
........................................................................
   1    -12.4273610 -0.124274E+02  0.504E-04    0.17       0.0  T
   2    -12.4273595  0.151471E-05  0.969E-03    0.17       3.0  T
   3    -12.4273610 -0.147827E-05  0.153E-03    0.17      18.9  T
   4    -12.4273610 -0.184408E-07  0.119E-03    0.17      24.2  T
   5    -12.4273610 -0.142361E-07  0.634E-04    0.17      45.6  T
   6    -12.4273610 -0.472216E-08  0.350E-04    0.17      82.6  T
     SCC iter.                  ...        0 min,  0.001 sec
     gradient                   ...        0 min,  0.000 sec
 * total energy  :   -12.3409470 Eh     change       -0.5723354E-08 Eh
   gradient norm :     0.2916727 Eh/α   predicted     0.0000000E+00 (-100.00%)
   displ. norm   :     0.7578520 α      lambda       -0.2168355E+00
   maximum displ.:     0.4191161 α      in ANC's #23, #21, #24, ...

........................................................................
.............................. CYCLE    2 ..............................
........................................................................
   1    -12.6056995 -0.126057E+02  0.154E+00    0.22       0.0  T
   2    -12.5552584  0.504411E-01  0.210E+00    0.13       1.0  T
   3    -12.4367779  0.118480E+00  0.333E+00    0.53       1.0  T
   4    -12.0151740  0.421604E+00  0.601E+00    0.05       1.0  T
   5    -12.5521232 -0.536949E+00  0.223E+00    0.33       1.0  T
   6    -12.5650242 -0.129011E-01  0.173E+00    0.31       1.0  T
   7    -12.5703187 -0.529452E-02  0.162E+00    0.17       1.0  T
   8    -12.6073131 -0.369944E-01  0.966E-01    0.24       1.0  T
   9    -12.6181058 -0.107927E-01  0.678E-01    0.23       1.0  T
  10    -12.6175956  0.510237E-03  0.658E-01    0.22       1.0  T
  11    -12.6067089  0.108867E-01  0.112E+00    0.17       1.0  T
  12    -12.5925125  0.141963E-01  0.143E+00    0.16       1.0  T
  13    -12.6195018 -0.269892E-01  0.576E-01    0.24       1.0  T
  14    -12.6139091  0.559268E-02  0.880E-01    0.25       1.0  T
  15    -12.6179410 -0.403187E-02  0.509E-01    0.24       1.0  T
  16    -12.6178747  0.662790E-04  0.517E-01    0.24       1.0  T
  17    -12.6215083 -0.363364E-02  0.220E-01    0.22       1.0  T
  18    -12.6213900  0.118317E-03  0.218E-01    0.22       1.0  T
  19    -12.6218399 -0.449895E-03  0.103E-01    0.22       1.0  T
  20    -12.6218888 -0.488282E-04  0.495E-02    0.22       1.0  T
  21    -12.6219096 -0.208862E-04  0.239E-02    0.22       1.2  T
  22    -12.6219145 -0.485303E-05  0.811E-03    0.22       3.6  T
  23    -12.6219145 -0.165136E-07  0.274E-03    0.22      10.6  T
  24    -12.6219146 -0.760996E-07  0.231E-03    0.22      12.5  T
  25    -12.6219146 -0.260172E-07  0.105E-03    0.22      27.5  T
  26    -12.6219146 -0.706657E-08  0.297E-04    0.22      97.1  T
  27    -12.6219146 -0.196978E-09  0.872E-05    0.22     331.2  T
     SCC iter.                  ...        0 min,  0.005 sec
     gradient                   ...        0 min,  0.000 sec
 * total energy  :   -12.5494101 Eh     change       -0.2084631E+00 Eh
   gradient norm :     0.2872436 Eh/α   predicted    -0.1706864E+00 ( -18.12%)
   displ. norm   :     0.9830124 α      lambda       -0.2799302E+00
   maximum displ.:     0.6494496 α      in ANC's #23, #24, #22, ...

........................................................................
.............................. CYCLE    3 ..............................
........................................................................
   1    -12.8491284 -0.128491E+02  0.355E+00    0.50       0.0  T
   2    -11.8659043  0.983224E+00  0.749E+00    1.04       1.0  T
   3    -12.5541154 -0.688211E+00  0.534E+00    0.46       1.0  T
   4    -12.6762618 -0.122146E+00  0.408E+00    0.91       1.0  T
   5    -11.7088159  0.967446E+00  0.780E+00    0.64       1.0  T
   6    -12.8293504 -0.112053E+01  0.268E+00    0.42       1.0  T
   7    -12.9233301 -0.939798E-01  0.139E+00    0.41       1.0  T
   8    -12.8935558  0.297744E-01  0.218E+00    0.43       1.0  T
   9    -12.8021227  0.914330E-01  0.301E+00    0.56       1.0  T
  10    -12.8724520 -0.703293E-01  0.238E+00    0.45       1.0  T
  11    -12.9161848 -0.437327E-01  0.174E+00    0.41       1.0  T
  12    -12.9334749 -0.172902E-01  0.133E+00    0.40       1.0  T
  13    -12.9594999 -0.260250E-01  0.451E-01    0.39       1.0  T
  14    -12.9595293 -0.294112E-04  0.448E-01    0.39       1.0  T
  15    -12.9577465  0.178283E-02  0.515E-01    0.39       1.0  T
  16    -12.9600329 -0.228646E-02  0.338E-01    0.39       1.0  T
  17    -12.9612801 -0.124719E-02  0.139E-01    0.40       1.0  T
  18    -12.9614837 -0.203560E-03  0.669E-02    0.39       1.0  T
  19    -12.9613563  0.127414E-03  0.115E-01    0.40       1.0  T
  20    -12.9611978  0.158522E-03  0.152E-01    0.40       1.0  T
  21    -12.9615155 -0.317726E-03  0.142E-02    0.40       2.0  T
  22    -12.9615134  0.213273E-05  0.180E-02    0.40       1.6  T
  23    -12.9615150 -0.167256E-05  0.126E-02    0.40       2.3  T
  24    -12.9615158 -0.729356E-06  0.105E-02    0.40       2.8  T
  25    -12.9615166 -0.829097E-06  0.728E-03    0.40       4.0  T
  26    -12.9615172 -0.647464E-06  0.286E-03    0.40      10.1  T
  27    -12.9615173 -0.889118E-07  0.130E-03    0.40      22.1  T
  28    -12.9615173 -0.251662E-07  0.204E-04    0.40     141.4  T
  29    -12.9615173  0.162730E-09  0.143E-04    0.40     201.6  T
     SCC iter.                  ...        0 min,  0.005 sec
     gradient                   ...        0 min,  0.000 sec
 * total energy  :   -12.7964056 Eh     change       -0.2469955E+00 Eh
   gradient norm :     0.1897387 Eh/α   predicted    -0.2752152E+00 (  11.43%)
   displ. norm   :     0.9017467 α      lambda       -0.1649779E+00
   maximum displ.:     0.4768878 α      in ANC's #23, #24, #14, ...

........................................................................
.............................. CYCLE    4 ..............................
........................................................................
   1    -13.2148361 -0.132148E+02  0.364E+00    1.29       0.0  T
   2    -12.5172349  0.697601E+00  0.638E+00    0.60       1.0  T
   3    -13.1985240 -0.681289E+00  0.297E+00    1.28       1.0  T
   4    -13.2201306 -0.216066E-01  0.243E+00    0.83       1.0  T
   5    -13.3026750 -0.825443E-01  0.968E-01    0.60       1.0  T
   6    -13.2943121  0.836288E-02  0.115E+00    0.53       1.0  T
   7    -13.2883281  0.598403E-02  0.124E+00    0.51       1.0  T
   8    -13.3033555 -0.150275E-01  0.565E-01    0.59       1.0  T
   9    -13.3065338 -0.317829E-02  0.435E-01    0.73       1.0  T
  10    -13.3065164  0.173692E-04  0.416E-01    0.74       1.0  T
  11    -13.3065472 -0.307352E-04  0.395E-01    0.74       1.0  T
  12    -13.3068123 -0.265168E-03  0.263E-01    0.72       1.0  T
  13    -13.3069732 -0.160843E-03  0.144E-01    0.71       1.0  T
  14    -13.3070139 -0.407534E-04  0.755E-02    0.71       1.0  T
  15    -13.3070142 -0.261973E-06  0.603E-02    0.71       1.0  T
  16    -13.3070159 -0.167620E-05  0.295E-02    0.70       1.0  T
  17    -13.3070160 -0.142606E-06  0.601E-03    0.70       4.8  T
  18    -13.3070161 -0.678847E-07  0.935E-04    0.70      30.9  T
  19    -13.3070161 -0.130576E-07  0.248E-04    0.70     116.6  T
     SCC iter.                  ...        0 min,  0.003 sec
     gradient                   ...        0 min,  0.000 sec
 * total energy  :   -12.7407288 Eh     change        0.5567685E-01 Eh
   gradient norm :     0.9196382 Eh/α   predicted    -0.1495647E+00 (-368.63%)
   displ. norm   :     0.4435298 α      lambda       -0.3723656E+00
   maximum displ.:     0.2698926 α      in ANC's #25, #27, #18, ...

........................................................................
.............................. CYCLE    5 ..............................
........................................................................
   1    -13.1899589 -0.131900E+02  0.190E+00    0.59       0.0  T
   2    -13.1776105  0.123484E-01  0.139E+00    0.67       1.0  T
   3    -13.1558745  0.217359E-01  0.185E+00    0.50       1.0  T
   4    -13.1966415 -0.407669E-01  0.799E-01    0.68       1.0  T
   5    -13.1797741  0.168673E-01  0.130E+00    0.40       1.0  T
   6    -13.1964694 -0.166953E-01  0.605E-01    0.70       1.0  T
   7    -13.2019155 -0.544609E-02  0.202E-01    0.62       1.0  T
   8    -13.2024602 -0.544688E-03  0.925E-02    0.61       1.0  T
   9    -13.2025190 -0.587431E-04  0.603E-02    0.59       1.0  T
  10    -13.2024995  0.194232E-04  0.659E-02    0.59       1.0  T
  11    -13.2025247 -0.251277E-04  0.303E-02    0.59       1.0  T
  12    -13.2025328 -0.815045E-05  0.890E-03    0.60       3.2  T
  13    -13.2025332 -0.384978E-06  0.459E-03    0.60       6.3  T
  14    -13.2025332  0.278355E-11  0.477E-03    0.60       6.1  T
  15    -13.2025334 -0.201230E-06  0.129E-03    0.60      22.4  T
  16    -13.2025334 -0.151056E-07  0.391E-04    0.60      73.9  T
  17    -13.2025334 -0.128975E-08  0.107E-04    0.60     270.1  T
     SCC iter.                  ...        0 min,  0.003 sec
     gradient                   ...        0 min,  0.000 sec
 * total energy  :   -12.8624494 Eh     change       -0.1217206E+00 Eh
   gradient norm :     0.2233597 Eh/α   predicted    -0.2228085E+00 (  83.05%)
   displ. norm   :     0.7310490 α      lambda       -0.1394606E+00
   maximum displ.:     0.4131443 α      in ANC's #23, #10, #14, ...

........................................................................
.............................. CYCLE    6 ..............................
........................................................................
   1    -12.8366798 -0.128367E+02  0.428E+00    0.38       0.0  T
   2      5.6647810  0.185015E+02  0.182E+01    0.92       1.0  T
   3    -11.3283314 -0.169931E+02  0.862E+00    1.05       1.0  T
   4    -12.8732052 -0.154487E+01  0.324E+00    0.41       1.0  T
   5    -12.9614890 -0.882837E-01  0.210E+00    0.41       1.0  T
   6    -12.9647116 -0.322264E-02  0.221E+00    0.33       1.0  T
   7    -13.0207003 -0.559887E-01  0.127E+00    0.47       1.0  T
   8    -13.0358784 -0.151780E-01  0.563E-01    0.39       1.0  T
   9    -13.0381823 -0.230396E-02  0.327E-01    0.39       1.0  T
  10    -13.0375546  0.627753E-03  0.433E-01    0.40       1.0  T
  11    -13.0383677 -0.813091E-03  0.289E-01    0.40       1.0  T
  12    -13.0386810 -0.313379E-03  0.230E-01    0.40       1.0  T
  13    -13.0388589 -0.177896E-03  0.139E-01    0.40       1.0  T
  14    -13.0387973  0.616854E-04  0.161E-01    0.40       1.0  T
  15    -13.0388214 -0.241868E-04  0.130E-01    0.40       1.0  T
  16    -13.0388682 -0.467470E-04  0.634E-02    0.40       1.0  T
  17    -13.0388679  0.295606E-06  0.611E-02    0.40       1.0  T
  18    -13.0388705 -0.262731E-05  0.477E-02    0.40       1.0  T
  19    -13.0388713 -0.756840E-06  0.380E-02    0.40       1.0  T
  20    -13.0388719 -0.657137E-06  0.173E-02    0.40       1.7  T
  21    -13.0388720 -0.105510E-06  0.985E-03    0.40       2.9  T
  22    -13.0388721 -0.454546E-07  0.210E-03    0.40      13.8  T
  23    -13.0388721 -0.415275E-08  0.615E-04    0.40      46.9  T
  24    -13.0388721 -0.826436E-09  0.201E-04    0.40     144.0  T
     SCC iter.                  ...        0 min,  0.004 sec
     gradient                   ...        0 min,  0.001 sec
 * total energy  :   -12.8560944 Eh     change        0.6354978E-02 Eh
   gradient norm :     0.2011027 Eh/α   predicted    -0.1069964E+00 (*******%)
   displ. norm   :     0.6275543 α      lambda       -0.8818743E-01
   maximum displ.:     0.3553158 α      in ANC's #18, #9, #14, ...

........................................................................
.............................. CYCLE    7 ..............................
........................................................................
   1    -13.1391088 -0.131391E+02  0.262E+00    0.35       0.0  T
   2    -12.8625198  0.276589E+00  0.394E+00    0.65       1.0  T
   3    -12.8385744  0.239454E-01  0.467E+00    0.25       1.0  T
   4    -13.1083178 -0.269743E+00  0.218E+00    0.34       1.0  T
   5    -13.0768260  0.314918E-01  0.266E+00    0.31       1.0  T
   6    -13.1387966 -0.619706E-01  0.135E+00    0.36       1.0  T
   7    -13.1487567 -0.996009E-02  0.106E+00    0.37       1.0  T
   8    -13.1565429 -0.778624E-02  0.689E-01    0.40       1.0  T
   9    -13.1579191 -0.137621E-02  0.591E-01    0.41       1.0  T
  10    -13.1542316  0.368751E-02  0.617E-01    0.44       1.0  T
  11    -13.1567044 -0.247278E-02  0.758E-01    0.38       1.0  T
  12    -13.1587157 -0.201133E-02  0.526E-01    0.40       1.0  T
  13    -13.1591137 -0.397938E-03  0.317E-01    0.40       1.0  T
  14    -13.1595611 -0.447439E-03  0.187E-01    0.41       1.0  T
  15    -13.1596594 -0.983057E-04  0.107E-01    0.42       1.0  T
  16    -13.1597119 -0.525193E-04  0.165E-02    0.42       1.8  T
  17    -13.1597123 -0.400016E-06  0.189E-02    0.42       1.5  T
  18    -13.1597128 -0.474163E-06  0.126E-02    0.42       2.3  T
  19    -13.1597124  0.410600E-06  0.139E-02    0.42       2.1  T
  20    -13.1597128 -0.398024E-06  0.739E-03    0.42       3.9  T
  21    -13.1597129 -0.684489E-07  0.331E-03    0.42       8.7  T
  22    -13.1597129 -0.291289E-07  0.660E-04    0.42      43.7  T
  23    -13.1597129 -0.768098E-09  0.484E-04    0.42      59.6  T
     SCC iter.                  ...        0 min,  0.005 sec
     gradient                   ...        0 min,  0.001 sec
 * total energy  :   -12.9266415 Eh     change       -0.7054713E-01 Eh
   gradient norm :     0.1250829 Eh/α   predicted    -0.6145886E-01 ( -12.88%)
   displ. norm   :     0.7854802 α      lambda       -0.8586290E-01
   maximum displ.:     0.4323960 α      in ANC's #18, #23, #30, ...

........................................................................
.............................. CYCLE    8 ..............................
........................................................................
   1    -13.2700451 -0.132700E+02  0.292E+00    0.27       0.0  T
   2    -12.4224598  0.847585E+00  0.669E+00    0.23       1.0  T
   3    -13.3078589 -0.885399E+00  0.173E+00    0.25       1.0  T
   4    -13.2074242  0.100435E+00  0.364E+00    0.03       1.0  T
   5    -13.3073103 -0.998862E-01  0.141E+00    0.15       1.0  T
   6    -13.2805573  0.267531E-01  0.248E+00    0.04       1.0  T
   7    -13.2700518  0.105054E-01  0.254E+00    0.02       1.0  T
   8    -13.2918323 -0.217804E-01  0.200E+00    0.04       1.0  T
   9    -13.3392873 -0.474551E-01  0.413E-01    0.12       1.0  T
  10    -13.3393162 -0.289060E-04  0.403E-01    0.12       1.0  T
  11    -13.3392883  0.279433E-04  0.361E-01    0.12       1.0  T
  12    -13.3386150  0.673237E-03  0.320E-01    0.12       1.0  T
  13    -13.3394387 -0.823636E-03  0.149E-01    0.13       1.0  T
  14    -13.3396203 -0.181660E-03  0.102E-01    0.14       1.0  T
  15    -13.3396142  0.613761E-05  0.104E-01    0.14       1.0  T
  16    -13.3396505 -0.363293E-04  0.489E-02    0.14       1.0  T
  17    -13.3396558 -0.531488E-05  0.429E-02    0.14       1.0  T
  18    -13.3396704 -0.145276E-04  0.367E-03    0.14       7.9  T
  19    -13.3396704 -0.372455E-07  0.167E-03    0.14      17.3  T
  20    -13.3396704 -0.138985E-07  0.464E-04    0.14      62.2  T
  21    -13.3396704  0.290701E-10  0.147E-04    0.14     196.5  T
     SCC iter.                  ...        0 min,  0.004 sec
     gradient                   ...        0 min,  0.001 sec
 * total energy  :   -12.9185195 Eh     change        0.8122027E-02 Eh
   gradient norm :     0.4814314 Eh/α   predicted    -0.6941924E-01 (-954.70%)
   displ. norm   :     0.4283369 α      lambda       -0.1542748E+00
   maximum displ.:     0.1746100 α      in ANC's #9, #18, #27, ...

........................................................................
.............................. CYCLE    9 ..............................
........................................................................
   1    -13.2918109 -0.132918E+02  0.283E+00    0.37       0.0  T
   2    -10.0541855  0.323763E+01  0.896E+00    0.46       1.0  T
   3    -12.9821597 -0.292797E+01  0.410E+00    0.24       1.0  T
   4    -13.1063873 -0.124228E+00  0.320E+00    0.26       1.0  T
   5    -13.1275210 -0.211337E-01  0.271E+00    0.30       1.0  T
   6    -13.2373278 -0.109807E+00  0.193E+00    0.31       1.0  T
   7    -13.2635915 -0.262637E-01  0.168E+00    0.32       1.0  T
   8    -13.2723978 -0.880631E-02  0.157E+00    0.33       1.0  T
   9    -13.2894524 -0.170546E-01  0.133E+00    0.33       1.0  T
  10    -13.3162234 -0.267710E-01  0.960E-01    0.35       1.0  T
  11    -13.3219865 -0.576307E-02  0.860E-01    0.36       1.0  T
  12    -13.3354682 -0.134817E-01  0.401E-01    0.40       1.0  T
  13    -13.3408313 -0.536317E-02  0.159E-01    0.39       1.0  T
  14    -13.3407768  0.545279E-04  0.951E-02    0.39       1.0  T
  15    -13.3404807  0.296130E-03  0.134E-01    0.38       1.0  T
  16    -13.3407683 -0.287582E-03  0.504E-02    0.39       1.0  T
  17    -13.3408468 -0.785189E-04  0.244E-02    0.39       1.2  T
  18    -13.3408550 -0.821972E-05  0.160E-02    0.39       1.8  T
  19    -13.3408615 -0.654386E-05  0.380E-03    0.39       7.6  T
  20    -13.3408610  0.573026E-06  0.563E-03    0.39       5.1  T
  21    -13.3408618 -0.875517E-06  0.511E-04    0.39      56.5  T
  22    -13.3408618  0.231671E-07  0.917E-04    0.39      31.5  T
     SCC iter.                  ...        0 min,  0.004 sec
     gradient                   ...        0 min,  0.001 sec
 * total energy  :   -12.9641527 Eh     change       -0.4563322E-01 Eh
   gradient norm :     0.2160927 Eh/α   predicted    -0.9129000E-01 ( 100.05%)
   displ. norm   :     0.6177337 α      lambda       -0.7253349E-01
   maximum displ.:     0.2952238 α      in ANC's #11, #10, #9, ...

........................................................................
.............................. CYCLE   10 ..............................
........................................................................
   1    -13.1833671 -0.131834E+02  0.287E+00    0.07       0.0  T
   2    -12.9332210  0.250146E+00  0.437E+00    0.34       1.0  T
   3    -13.0881873 -0.154966E+00  0.381E+00    0.05       1.0  T
   4    -13.1783755 -0.901882E-01  0.176E+00    0.07       1.0  T
   5    -13.1533301  0.250454E-01  0.185E+00    0.04       1.0  T
   6    -13.2035819 -0.502518E-01  0.517E-01    0.07       1.0  T
   7    -13.2060907 -0.250877E-02  0.435E-01    0.08       1.0  T
   8    -13.1954938  0.105969E-01  0.108E+00    0.12       1.0  T
   9    -13.1970753 -0.158154E-02  0.103E+00    0.12       1.0  T
  10    -13.1971757 -0.100378E-03  0.104E+00    0.11       1.0  T
  11    -13.2028935 -0.571784E-02  0.657E-01    0.11       1.0  T
  12    -13.2072314 -0.433788E-02  0.289E-01    0.07       1.0  T
  13    -13.2072610 -0.295820E-04  0.179E-01    0.08       1.0  T
  14    -13.2075631 -0.302123E-03  0.692E-02    0.07       1.0  T
  15    -13.2074607  0.102451E-03  0.150E-01    0.07       1.0  T
  16    -13.2075493 -0.886153E-04  0.768E-02    0.07       1.0  T
  17    -13.2075561 -0.677668E-05  0.691E-02    0.07       1.0  T
  18    -13.2075616 -0.558755E-05  0.572E-02    0.07       1.0  T
  19    -13.2075645 -0.286462E-05  0.413E-02    0.07       1.0  T
  20    -13.2075704 -0.586832E-05  0.126E-02    0.07       2.3  T
  21    -13.2075708 -0.373658E-06  0.777E-03    0.07       3.7  T
  22    -13.2075710 -0.284299E-06  0.108E-03    0.07      26.6  T
  23    -13.2075710 -0.162170E-08  0.937E-04    0.07      30.8  T
  24    -13.2075710 -0.436635E-08  0.666E-05    0.07     433.5  T
     SCC iter.                  ...        0 min,  0.005 sec
     gradient                   ...        0 min,  0.000 sec
 * total energy  :   -12.9636973 Eh     change        0.4554283E-03 Eh
   gradient norm :     0.1537211 Eh/α   predicted    -0.5010599E-01 (*******%)
   displ. norm   :     0.5093983 α      lambda       -0.5080889E-01
   maximum displ.:     0.2751808 α      in ANC's #9, #24, #30, ...

........................................................................
.............................. CYCLE   11 ..............................
........................................................................
   1    -13.2785375 -0.132785E+02  0.196E+00    0.30       0.0  T
   2    -13.1308348  0.147703E+00  0.272E+00    0.27       1.0  T
   3    -13.2323767 -0.101542E+00  0.173E+00    0.29       1.0  T
   4    -13.0744185  0.157958E+00  0.332E+00    0.45       1.0  T
   5    -13.2793526 -0.204934E+00  0.748E-01    0.29       1.0  T
   6    -13.2901267 -0.107741E-01  0.312E-01    0.31       1.0  T
   7    -13.2895156  0.611192E-03  0.359E-01    0.32       1.0  T
   8    -13.2898013 -0.285757E-03  0.350E-01    0.32       1.0  T
   9    -13.2895466  0.254676E-03  0.274E-01    0.33       1.0  T
  10    -13.2901306 -0.583940E-03  0.126E-01    0.33       1.0  T
  11    -13.2903111 -0.180525E-03  0.993E-02    0.33       1.0  T
  12    -13.2903898 -0.787062E-04  0.461E-02    0.32       1.0  T
  13    -13.2904088 -0.189893E-04  0.305E-02    0.32       1.0  T
  14    -13.2904220 -0.132107E-04  0.138E-02    0.32       2.1  T
  15    -13.2904255 -0.349378E-05  0.249E-03    0.32      11.6  T
  16    -13.2904256 -0.116738E-06  0.569E-04    0.32      50.7  T
  17    -13.2904256  0.143675E-08  0.406E-04    0.32      71.1  T
     SCC iter.                  ...        0 min,  0.004 sec
     gradient                   ...        0 min,  0.001 sec
 * total energy  :   -12.9944502 Eh     change       -0.3075292E-01 Eh
   gradient norm :     0.1007302 Eh/α   predicted    -0.3199656E-01 (   4.04%)
   displ. norm   :     0.7694314 α      lambda       -0.6154067E-01
   maximum displ.:     0.4279842 α      in ANC's #11, #30, #23, ...

........................................................................
.............................. CYCLE   12 ..............................
........................................................................
   1    -13.4310162 -0.134310E+02  0.178E+00    0.46       0.0  T
   2    -13.4128387  0.181776E-01  0.128E+00    0.45       1.0  T
   3    -13.2717859  0.141053E+00  0.349E+00    0.50       1.0  T
   4    -13.4187172 -0.146931E+00  0.117E+00    0.46       1.0  T
   5    -13.4271120 -0.839485E-02  0.630E-01    0.46       1.0  T
   6    -13.4321412 -0.502919E-02  0.332E-01    0.46       1.0  T
   7    -13.4321527 -0.115047E-04  0.287E-01    0.46       1.0  T
   8    -13.4325128 -0.360048E-03  0.111E-01    0.46       1.0  T
   9    -13.4327280 -0.215229E-03  0.555E-02    0.46       1.0  T
  10    -13.4326325  0.955290E-04  0.112E-01    0.46       1.0  T
  11    -13.4327061 -0.736516E-04  0.629E-02    0.46       1.0  T
  12    -13.4327203 -0.141726E-04  0.370E-02    0.46       1.0  T
  13    -13.4327339 -0.135998E-04  0.832E-03    0.46       3.5  T
  14    -13.4327339 -0.438571E-07  0.517E-03    0.46       5.6  T
  15    -13.4327339  0.438737E-07  0.345E-03    0.46       8.4  T
  16    -13.4327340 -0.794771E-07  0.966E-04    0.46      29.9  T
  17    -13.4327340 -0.693198E-08  0.186E-04    0.46     155.0  T
     SCC iter.                  ...        0 min,  0.003 sec
     gradient                   ...        0 min,  0.001 sec
 * total energy  :   -12.9655771 Eh     change        0.2887309E-01 Eh
   gradient norm :     0.4120488 Eh/α   predicted    -0.4898714E-01 (-269.66%)
   displ. norm   :     0.3698814 α      lambda       -0.1314208E+00
   maximum displ.:     0.1828123 α      in ANC's #23, #11, #10, ...

........................................................................
.............................. CYCLE   13 ..............................
........................................................................
   1    -13.3916974 -0.133917E+02  0.131E+00    0.35       0.0  T
   2    -13.3881564  0.354100E-02  0.902E-01    0.36       1.0  T
   3    -13.3400843  0.480721E-01  0.186E+00    0.33       1.0  T
   4    -13.3803998 -0.403155E-01  0.682E-01    0.33       1.0  T
   5    -13.3796351  0.764756E-03  0.860E-01    0.35       1.0  T
   6    -13.3894080 -0.977287E-02  0.496E-01    0.35       1.0  T
   7    -13.3899389 -0.530955E-03  0.461E-01    0.35       1.0  T
   8    -13.3910516 -0.111265E-02  0.357E-01    0.35       1.0  T
   9    -13.3924572 -0.140560E-02  0.175E-01    0.35       1.0  T
  10    -13.3925076 -0.504093E-04  0.151E-01    0.34       1.0  T
  11    -13.3928220 -0.314429E-03  0.595E-02    0.34       1.0  T
  12    -13.3928726 -0.505923E-04  0.113E-02    0.34       2.6  T
  13    -13.3928737 -0.113687E-05  0.236E-03    0.34      12.2  T
  14    -13.3928738 -0.863795E-07  0.149E-03    0.34      19.4  T
  15    -13.3928738 -0.205396E-07  0.306E-04    0.34      94.4  T
  16    -13.3928738 -0.124523E-08  0.154E-04    0.34     187.5  T
     SCC iter.                  ...        0 min,  0.003 sec
     gradient                   ...        0 min,  0.001 sec
 * total energy  :   -13.0101696 Eh     change       -0.4459249E-01 Eh
   gradient norm :     0.1226662 Eh/α   predicted    -0.7470044E-01 (  67.52%)
   displ. norm   :     0.7272434 α      lambda       -0.5781905E-01
   maximum displ.:     0.5334765 α      in ANC's #18, #9, #11, ...

........................................................................
.............................. CYCLE   14 ..............................
........................................................................
   1    -13.2556667 -0.132557E+02  0.568E+00    0.43       0.0  T
   2    -12.5798605  0.675806E+00  0.569E+00    0.32       1.0  T
   3    -12.1176559  0.462205E+00  0.793E+00    0.64       1.0  T
   4    -12.8337595 -0.716104E+00  0.421E+00    0.23       1.0  T
   5    -13.1527800 -0.319021E+00  0.472E+00    0.72       1.0  T
   6    -13.2604931 -0.107713E+00  0.149E+00    0.35       1.0  T
   7    -13.2841830 -0.236899E-01  0.131E+00    0.40       1.0  T
   8    -13.2900397 -0.585673E-02  0.113E+00    0.41       1.0  T
   9    -13.2928602 -0.282051E-02  0.997E-01    0.42       1.0  T
  10    -13.2974999 -0.463966E-02  0.801E-01    0.45       1.0  T
  11    -13.3001897 -0.268982E-02  0.539E-01    0.47       1.0  T
  12    -13.3016944 -0.150468E-02  0.130E-01    0.49       1.0  T
  13    -13.3017048 -0.104511E-04  0.143E-01    0.49       1.0  T
  14    -13.3018027 -0.978544E-04  0.416E-02    0.48       1.0  T
  15    -13.3018056 -0.294253E-05  0.499E-02    0.49       1.0  T
  16    -13.3018243 -0.187046E-04  0.225E-02    0.49       1.3  T
  17    -13.3018252 -0.912808E-06  0.168E-02    0.48       1.7  T
  18    -13.3018263 -0.108654E-05  0.826E-03    0.48       3.5  T
  19    -13.3018262  0.663604E-07  0.588E-03    0.48       4.9  T
  20    -13.3018263 -0.968208E-07  0.244E-03    0.48      11.8  T
  21    -13.3018263 -0.962426E-08  0.984E-04    0.48      29.3  T
  22    -13.3018263 -0.522103E-09  0.528E-04    0.48      54.7  T
     SCC iter.                  ...        0 min,  0.004 sec
     gradient                   ...        0 min,  0.000 sec
 * total energy  :   -13.0033170 Eh     change        0.6852569E-02 Eh
   gradient norm :     0.0939218 Eh/α   predicted    -0.4419930E-01 (-745.00%)
   displ. norm   :     0.4853808 α      lambda       -0.2771237E-01
   maximum displ.:     0.2580677 α      in ANC's #18, #6, #13, ...

........................................................................
.............................. CYCLE   15 ..............................
........................................................................
   1    -13.3414201 -0.133414E+02  0.158E+00    0.36       0.0  T
   2    -13.2540647  0.873553E-01  0.198E+00    0.46       1.0  T
   3    -13.2374113  0.166534E-01  0.323E+00    0.28       1.0  T
   4    -13.2673254 -0.299141E-01  0.207E+00    0.37       1.0  T
   5    -13.3344984 -0.671730E-01  0.129E+00    0.33       1.0  T
   6    -13.3446831 -0.101847E-01  0.806E-01    0.34       1.0  T
   7    -13.3448985 -0.215411E-03  0.786E-01    0.34       1.0  T
   8    -13.3477220 -0.282345E-02  0.520E-01    0.36       1.0  T
   9    -13.3499040 -0.218205E-02  0.168E-01    0.38       1.0  T
  10    -13.3497083  0.195747E-03  0.215E-01    0.37       1.0  T
  11    -13.3498716 -0.163331E-03  0.146E-01    0.38       1.0  T
  12    -13.3500713 -0.199685E-03  0.297E-02    0.39       1.0  T
  13    -13.3500726 -0.128424E-05  0.170E-02    0.38       1.7  T
  14    -13.3500719  0.693616E-06  0.135E-02    0.38       2.1  T
  15    -13.3500736 -0.172962E-05  0.274E-03    0.38      10.6  T
  16    -13.3500737 -0.566209E-07  0.110E-03    0.38      26.4  T
  17    -13.3500737 -0.973888E-08  0.821E-04    0.38      35.2  T
  18    -13.3500737 -0.198388E-08  0.417E-04    0.38      69.3  T
     SCC iter.                  ...        0 min,  0.003 sec
     gradient                   ...        0 min,  0.000 sec
 * total energy  :   -13.0254420 Eh     change       -0.2212499E-01 Eh
   gradient norm :     0.0686779 Eh/α   predicted    -0.1712062E-01 ( -22.62%)
   displ. norm   :     0.7512689 α      lambda       -0.3294476E-01
   maximum displ.:     0.5164483 α      in ANC's #18, #6, #30, ...

........................................................................
.............................. CYCLE   16 ..............................
........................................................................
   1    -13.4063830 -0.134064E+02  0.338E+00    0.36       0.0  T
   2    -13.2842544  0.122129E+00  0.232E+00    0.41       1.0  T
   3    -13.0981378  0.186117E+00  0.500E+00    0.32       1.0  T
   4    -13.3313841 -0.233246E+00  0.233E+00    0.34       1.0  T
   5    -13.3326480 -0.126385E-02  0.236E+00    0.31       1.0  T
   6    -13.4096090 -0.769610E-01  0.112E+00    0.32       1.0  T
   7    -13.4111813 -0.157229E-02  0.107E+00    0.32       1.0  T
   8    -13.4123009 -0.111967E-02  0.103E+00    0.32       1.0  T
   9    -13.4170824 -0.478153E-02  0.744E-01    0.33       1.0  T
  10    -13.4230969 -0.601447E-02  0.338E-01    0.34       1.0  T
  11    -13.4230431  0.538389E-04  0.313E-01    0.33       1.0  T
  12    -13.4238745 -0.831431E-03  0.132E-01    0.33       1.0  T
  13    -13.4239397 -0.652093E-04  0.105E-01    0.33       1.0  T
  14    -13.4239311  0.865150E-05  0.107E-01    0.33       1.0  T
  15    -13.4240709 -0.139849E-03  0.251E-02    0.33       1.2  T
  16    -13.4240730 -0.211867E-05  0.164E-02    0.33       1.8  T
  17    -13.4240756 -0.259852E-05  0.295E-03    0.33       9.8  T
  18    -13.4240757 -0.960251E-07  0.118E-03    0.33      24.4  T
  19    -13.4240757 -0.119305E-07  0.272E-04    0.33     106.1  T
  20    -13.4240757 -0.943160E-09  0.694E-05    0.33     415.9  T
     SCC iter.                  ...        0 min,  0.004 sec
     gradient                   ...        0 min,  0.001 sec
 * total energy  :   -13.0277122 Eh     change       -0.2270173E-02 Eh
   gradient norm :     0.1471762 Eh/α   predicted    -0.2576948E-01 (1035.13%)
   displ. norm   :     0.4036440 α      lambda       -0.3646003E-01
   maximum displ.:     0.2002579 α      in ANC's #9, #18, #14, ...

........................................................................
.............................. CYCLE   17 ..............................
........................................................................
   1    -13.3617006 -0.133617E+02  0.185E+00    0.32       0.0  T
   2    -13.3108012  0.508994E-01  0.193E+00    0.31       1.0  T
   3    -13.3123114 -0.151027E-02  0.156E+00    0.32       1.0  T
   4    -13.2455600  0.667515E-01  0.299E+00    0.41       1.0  T
   5    -13.3462205 -0.100661E+00  0.103E+00    0.32       1.0  T
   6    -13.3608695 -0.146490E-01  0.794E-01    0.35       1.0  T
   7    -13.3625202 -0.165075E-02  0.666E-01    0.35       1.0  T
   8    -13.3644904 -0.197015E-02  0.558E-01    0.35       1.0  T
   9    -13.3683449 -0.385452E-02  0.707E-02    0.34       1.0  T
  10    -13.3683210  0.239271E-04  0.843E-02    0.34       1.0  T
  11    -13.3683190  0.192104E-05  0.692E-02    0.34       1.0  T
  12    -13.3683543 -0.352666E-04  0.106E-02    0.34       2.7  T
  13    -13.3683552 -0.911172E-06  0.569E-03    0.34       5.1  T
  14    -13.3683552  0.324580E-07  0.297E-03    0.34       9.7  T
  15    -13.3683553 -0.768075E-07  0.150E-03    0.34      19.3  T
  16    -13.3683553 -0.352120E-07  0.418E-04    0.34      69.1  T
  17    -13.3683553 -0.778401E-09  0.113E-04    0.34     254.6  T
     SCC iter.                  ...        0 min,  0.004 sec
     gradient                   ...        0 min,  0.001 sec
 * total energy  :   -13.0417198 Eh     change       -0.1400759E-01 Eh
   gradient norm :     0.0684970 Eh/α   predicted    -0.2120022E-01 (  51.35%)
   displ. norm   :     0.6367437 α      lambda       -0.1848040E-01
   maximum displ.:     0.2506346 α      in ANC's #8, #16, #13, ...

........................................................................
.............................. CYCLE   18 ..............................
........................................................................
   1    -13.4120024 -0.134120E+02  0.336E+00    0.37       0.0  T
   2    -13.3174846  0.945178E-01  0.295E+00    0.34       1.0  T
   3    -13.0080275  0.309457E+00  0.533E+00    0.60       1.0  T
   4    -13.1751186 -0.167091E+00  0.356E+00    0.24       1.0  T
   5    -13.3521487 -0.177030E+00  0.170E+00    0.36       1.0  T
   6    -13.4102166 -0.580679E-01  0.733E-01    0.35       1.0  T
   7    -13.4194258 -0.920920E-02  0.706E-01    0.40       1.0  T
   8    -13.4187308  0.694926E-03  0.758E-01    0.41       1.0  T
   9    -13.4184507  0.280176E-03  0.749E-01    0.41       1.0  T
  10    -13.4192113 -0.760594E-03  0.513E-01    0.40       1.0  T
  11    -13.4188266  0.384631E-03  0.525E-01    0.40       1.0  T
  12    -13.4202194 -0.139277E-02  0.185E-01    0.41       1.0  T
  13    -13.4202826 -0.632404E-04  0.649E-02    0.41       1.0  T
  14    -13.4203072 -0.245799E-04  0.394E-02    0.41       1.0  T
  15    -13.4203108 -0.353443E-05  0.245E-02    0.41       1.2  T
  16    -13.4203115 -0.704762E-06  0.102E-02    0.41       2.8  T
  17    -13.4203113  0.170858E-06  0.819E-03    0.41       3.5  T
  18    -13.4203116 -0.332310E-06  0.127E-03    0.41      22.8  T
  19    -13.4203116 -0.138039E-07  0.385E-04    0.41      74.9  T
  20    -13.4203116  0.177641E-09  0.331E-04    0.41      87.2  T
     SCC iter.                  ...        0 min,  0.004 sec
     gradient                   ...        0 min,  0.001 sec
 * total energy  :   -13.0226136 Eh     change        0.1910623E-01 Eh
   gradient norm :     0.1957094 Eh/α   predicted    -0.1298658E-01 (-167.97%)
   displ. norm   :     0.3841833 α      lambda       -0.4138921E-01
   maximum displ.:     0.1736194 α      in ANC's #1, #11, #18, ...

........................................................................
.............................. CYCLE   19 ..............................
........................................................................
   1    -13.3943099 -0.133943E+02  0.196E+00    0.27       0.0  T
   2    -13.3489641  0.453458E-01  0.177E+00    0.32       1.0  T
   3    -13.2785601  0.704040E-01  0.322E+00    0.22       1.0  T
   4    -13.2742696  0.429050E-02  0.223E+00    0.39       1.0  T
   5    -13.3784924 -0.104223E+00  0.140E+00    0.24       1.0  T
   6    -13.3881426 -0.965018E-02  0.108E+00    0.25       1.0  T
   7    -13.3901164 -0.197383E-02  0.944E-01    0.25       1.0  T
   8    -13.3946442 -0.452773E-02  0.685E-01    0.26       1.0  T
   9    -13.3992847 -0.464057E-02  0.142E-01    0.29       1.0  T
  10    -13.3985976  0.687113E-03  0.233E-01    0.30       1.0  T
  11    -13.3994175 -0.819917E-03  0.803E-02    0.30       1.0  T
  12    -13.3994154  0.208289E-05  0.552E-02    0.29       1.0  T
  13    -13.3994590 -0.435297E-04  0.192E-02    0.29       1.5  T
  14    -13.3994595 -0.516155E-06  0.112E-02    0.29       2.6  T
  15    -13.3994589  0.579195E-06  0.981E-03    0.29       2.9  T
  16    -13.3994599 -0.934560E-06  0.152E-03    0.29      18.9  T
  17    -13.3994599 -0.729733E-08  0.930E-04    0.29      31.1  T
  18    -13.3994599 -0.332025E-08  0.208E-04    0.29     138.6  T
     SCC iter.                  ...        0 min,  0.003 sec
     gradient                   ...        0 min,  0.000 sec
 * total energy  :   -13.0477930 Eh     change       -0.2517946E-01 Eh
   gradient norm :     0.0319896 Eh/α   predicted    -0.2374908E-01 (  -5.68%)
   displ. norm   :     0.5712089 α      lambda       -0.1013923E-01
   maximum displ.:     0.3717735 α      in ANC's #6, #9, #18, ...

........................................................................
.............................. CYCLE   20 ..............................
........................................................................
   1    -13.3901983 -0.133902E+02  0.132E+00    0.28       0.0  T
   2    -13.3620054  0.281928E-01  0.129E+00    0.32       1.0  T
   3    -13.3007590  0.612464E-01  0.263E+00    0.23       1.0  T
   4    -13.3697919 -0.690329E-01  0.117E+00    0.27       1.0  T
   5    -13.3776345 -0.784265E-02  0.914E-01    0.26       1.0  T
   6    -13.3879838 -0.103493E-01  0.567E-01    0.27       1.0  T
   7    -13.3883806 -0.396765E-03  0.533E-01    0.27       1.0  T
   8    -13.3904742 -0.209363E-02  0.335E-01    0.27       1.0  T
   9    -13.3908219 -0.347684E-03  0.261E-01    0.28       1.0  T
  10    -13.3912866 -0.464674E-03  0.140E-01    0.28       1.0  T
  11    -13.3914634 -0.176817E-03  0.331E-02    0.28       1.0  T
  12    -13.3914797 -0.162874E-04  0.911E-03    0.28       3.2  T
  13    -13.3914804 -0.704499E-06  0.622E-03    0.28       4.6  T
  14    -13.3914802  0.170795E-06  0.416E-03    0.28       6.9  T
  15    -13.3914806 -0.375340E-06  0.120E-03    0.28      24.0  T
  16    -13.3914806 -0.106849E-07  0.203E-04    0.28     142.5  T
  17    -13.3914806  0.139650E-09  0.180E-04    0.28     160.6  T
     SCC iter.                  ...        0 min,  0.003 sec
     gradient                   ...        0 min,  0.000 sec
 * total energy  :   -13.0519446 Eh     change       -0.4151615E-02 Eh
   gradient norm :     0.0471319 Eh/α   predicted    -0.6723727E-02 (  61.95%)
   displ. norm   :     0.5266810 α      lambda       -0.7957071E-02
   maximum displ.:     0.3042216 α      in ANC's #6, #2, #9, ...
 * RMSD in coord.:     1.8833876 α      energy gain  -0.7109976E+00 Eh

generating ANC from model Hessian ...
Using Lindh-Hessian (1995)
 Shifting diagonal of input Hessian by    1.1591496699148470E-002
 Lowest  eigenvalues of input Hessian
    0.010000    0.011118    0.011386    0.011462    0.011528    0.000000
    0.000000    0.000000    0.000000    0.000000    0.000000    0.011638
    0.011661    0.011736    0.011787    0.011861    0.012040    0.012364
 Highest eigenvalues
    0.560192    0.689956    0.802239    1.045802    1.834201    2.541630


........................................................................
.............................. CYCLE   21 ..............................
........................................................................
   1    -13.3887832 -0.133888E+02  0.116E+00    0.25       0.0  T
   2    -13.3880604  0.722827E-03  0.740E-01    0.25       1.0  T
   3    -13.3546864  0.333740E-01  0.132E+00    0.24       1.0  T
   4    -13.3865785 -0.318921E-01  0.413E-01    0.26       1.0  T
   5    -13.3881135 -0.153498E-02  0.221E-01    0.25       1.0  T
   6    -13.3885539 -0.440400E-03  0.155E-01    0.26       1.0  T
   7    -13.3889599 -0.406081E-03  0.599E-02    0.25       1.0  T
   8    -13.3889967 -0.367532E-04  0.260E-02    0.25       1.1  T
   9    -13.3890017 -0.502136E-05  0.167E-02    0.25       1.7  T
  10    -13.3890009  0.815217E-06  0.157E-02    0.25       1.8  T
  11    -13.3890040 -0.305756E-05  0.551E-03    0.25       5.2  T
  12    -13.3890036  0.332272E-06  0.652E-03    0.25       4.4  T
  13    -13.3890041 -0.420229E-06  0.305E-03    0.25       9.5  T
  14    -13.3890042 -0.103403E-06  0.437E-04    0.25      66.1  T
  15    -13.3890042 -0.140954E-08  0.196E-04    0.25     147.0  T
     SCC iter.                  ...        0 min,  0.003 sec
     gradient                   ...        0 min,  0.000 sec
 * total energy  :   -13.0539955 Eh     change       -0.2050855E-02 Eh
   gradient norm :     0.0746208 Eh/α   predicted     0.0000000E+00 (-100.00%)
   displ. norm   :     0.3355830 α      lambda       -0.9795174E-02
   maximum displ.:     0.1740110 α      in ANC's #17, #18, #11, ...

........................................................................
.............................. CYCLE   22 ..............................
........................................................................
   1    -13.4136001 -0.134136E+02  0.718E-01    0.26       0.0  T
   2    -13.4086832  0.491690E-02  0.685E-01    0.26       1.0  T
   3    -13.3992738  0.940943E-02  0.873E-01    0.24       1.0  T
   4    -13.3965110  0.276284E-02  0.119E+00    0.29       1.0  T
   5    -13.4122026 -0.156917E-01  0.302E-01    0.26       1.0  T
   6    -13.4138908 -0.168814E-02  0.214E-01    0.26       1.0  T
   7    -13.4134553  0.435460E-03  0.256E-01    0.26       1.0  T
   8    -13.4140641 -0.608774E-03  0.149E-01    0.26       1.0  T
   9    -13.4142722 -0.208109E-03  0.332E-02    0.26       1.0  T
  10    -13.4142803 -0.813151E-05  0.206E-02    0.26       1.4  T
  11    -13.4142782  0.214221E-05  0.202E-02    0.26       1.4  T
  12    -13.4142792 -0.108066E-05  0.173E-02    0.26       1.7  T
  13    -13.4142822 -0.293407E-05  0.582E-03    0.26       5.0  T
  14    -13.4142825 -0.317854E-06  0.218E-03    0.26      13.2  T
  15    -13.4142825 -0.516197E-07  0.301E-04    0.26      95.9  T
  16    -13.4142825 -0.850518E-09  0.609E-05    0.26     474.3  T
     SCC iter.                  ...        0 min,  0.003 sec
     gradient                   ...        0 min,  0.001 sec
 * total energy  :   -13.0603292 Eh     change       -0.6333737E-02 Eh
   gradient norm :     0.0124619 Eh/α   predicted    -0.5449131E-02 ( -13.97%)
   displ. norm   :     0.4538964 α      lambda       -0.3725974E-02
   maximum displ.:     0.2564410 α      in ANC's #17, #19, #11, ...

........................................................................
.............................. CYCLE   23 ..............................
........................................................................
   1    -13.4178841 -0.134179E+02  0.944E-01    0.24       0.0  T
   2    -13.4168537  0.103043E-02  0.636E-01    0.24       1.0  T
   3    -13.3805540  0.362998E-01  0.122E+00    0.24       1.0  T
   4    -13.4157050 -0.351511E-01  0.430E-01    0.25       1.0  T
   5    -13.4173603 -0.165529E-02  0.226E-01    0.24       1.0  T
   6    -13.4180197 -0.659387E-03  0.672E-02    0.24       1.0  T
   7    -13.4180431 -0.233645E-04  0.307E-02    0.24       1.0  T
   8    -13.4180495 -0.641769E-05  0.146E-02    0.24       2.0  T
   9    -13.4180498 -0.305891E-06  0.141E-02    0.24       2.1  T
  10    -13.4180493  0.466742E-06  0.133E-02    0.24       2.2  T
  11    -13.4180503 -0.961553E-06  0.112E-02    0.24       2.6  T
  12    -13.4180510 -0.692047E-06  0.677E-03    0.24       4.3  T
  13    -13.4180513 -0.355038E-06  0.352E-03    0.24       8.2  T
  14    -13.4180515 -0.116216E-06  0.606E-04    0.24      47.6  T
  15    -13.4180515 -0.351845E-08  0.536E-05    0.24     538.4  T
     SCC iter.                  ...        0 min,  0.003 sec
     gradient                   ...        0 min,  0.000 sec
 * total energy  :   -13.0627041 Eh     change       -0.2374840E-02 Eh
   gradient norm :     0.0189082 Eh/α   predicted    -0.2246795E-02 (  -5.39%)
   displ. norm   :     0.7420317 α      lambda       -0.5613471E-02
   maximum displ.:     0.3345823 α      in ANC's #11, #18, #19, ...

........................................................................
.............................. CYCLE   24 ..............................
........................................................................
   1    -13.4079846 -0.134080E+02  0.185E+00    0.24       0.0  T
   2    -13.4074527  0.531896E-03  0.121E+00    0.23       1.0  T
   3    -13.3214802  0.859724E-01  0.263E+00    0.33       1.0  T
   4    -13.3970911 -0.756109E-01  0.778E-01    0.22       1.0  T
   5    -13.4051356 -0.804450E-02  0.647E-01    0.25       1.0  T
   6    -13.3998398  0.529581E-02  0.826E-01    0.26       1.0  T
   7    -13.4048643 -0.502450E-02  0.599E-01    0.26       1.0  T
   8    -13.4066391 -0.177479E-02  0.399E-01    0.25       1.0  T
   9    -13.4084069 -0.176786E-02  0.100E-01    0.24       1.0  T
  10    -13.4084349 -0.279602E-04  0.599E-02    0.24       1.0  T
  11    -13.4084210  0.139041E-04  0.721E-02    0.24       1.0  T
  12    -13.4083893  0.316862E-04  0.861E-02    0.24       1.0  T
  13    -13.4084557 -0.663762E-04  0.178E-02    0.24       1.6  T
  14    -13.4084582 -0.246487E-05  0.932E-03    0.24       3.1  T
  15    -13.4084591 -0.940013E-06  0.274E-03    0.24      10.6  T
  16    -13.4084591 -0.362549E-07  0.176E-03    0.24      16.4  T
  17    -13.4084592 -0.306283E-07  0.330E-04    0.24      87.5  T
  18    -13.4084592 -0.784956E-09  0.128E-04    0.24     226.0  T
     SCC iter.                  ...        0 min,  0.003 sec
     gradient                   ...        0 min,  0.001 sec
 * total energy  :   -13.0658083 Eh     change       -0.3104183E-02 Eh
   gradient norm :     0.0315129 Eh/α   predicted    -0.4352123E-02 (  40.20%)
   displ. norm   :     0.5166673 α      lambda       -0.4292142E-02
   maximum displ.:     0.2827622 α      in ANC's #18, #11, #19, ...

........................................................................
.............................. CYCLE   25 ..............................
........................................................................
   1    -13.4070948 -0.134071E+02  0.119E+00    0.23       0.0  T
   2    -13.4026324  0.446240E-02  0.920E-01    0.21       1.0  T
   3    -13.2741729  0.128459E+00  0.276E+00    0.35       1.0  T
   4    -13.3830658 -0.108893E+00  0.129E+00    0.19       1.0  T
   5    -13.3979443 -0.148785E-01  0.670E-01    0.20       1.0  T
   6    -13.4056920 -0.774775E-02  0.292E-01    0.22       1.0  T
   7    -13.4073566 -0.166457E-02  0.202E-01    0.23       1.0  T
   8    -13.4070922  0.264421E-03  0.250E-01    0.23       1.0  T
   9    -13.4063707  0.721500E-03  0.247E-01    0.24       1.0  T
  10    -13.4074418 -0.107109E-02  0.154E-01    0.23       1.0  T
  11    -13.4074257  0.160162E-04  0.127E-01    0.23       1.0  T
  12    -13.4074491 -0.233354E-04  0.553E-02    0.23       1.0  T
  13    -13.4074819 -0.327847E-04  0.510E-02    0.23       1.0  T
  14    -13.4074833 -0.141941E-05  0.171E-02    0.23       1.7  T
  15    -13.4074859 -0.264981E-05  0.121E-02    0.23       2.4  T
  16    -13.4074883 -0.234283E-05  0.337E-03    0.23       8.6  T
  17    -13.4074885 -0.215099E-06  0.389E-04    0.23      74.1  T
  18    -13.4074885 -0.252632E-08  0.938E-05    0.23     307.7  T
     SCC iter.                  ...        0 min,  0.003 sec
     gradient                   ...        0 min,  0.001 sec
 * total energy  :   -13.0682935 Eh     change       -0.2485238E-02 Eh
   gradient norm :     0.0368911 Eh/α   predicted    -0.2718941E-02 (   9.40%)
   displ. norm   :     0.4603821 α      lambda       -0.4101861E-02
   maximum displ.:     0.1643596 α      in ANC's #18, #14, #11, ...

........................................................................
.............................. CYCLE   26 ..............................
........................................................................
   1    -13.4068246 -0.134068E+02  0.995E-01    0.19       0.0  T
   2    -13.4009335  0.589109E-02  0.757E-01    0.22       1.0  T
   3    -13.3395206  0.614129E-01  0.243E+00    0.13       1.0  T
   4    -13.3978871 -0.583665E-01  0.768E-01    0.18       1.0  T
   5    -13.4053300 -0.744293E-02  0.418E-01    0.19       1.0  T
   6    -13.4061856 -0.855645E-03  0.301E-01    0.19       1.0  T
   7    -13.4065530 -0.367380E-03  0.243E-01    0.19       1.0  T
   8    -13.4069015 -0.348519E-03  0.130E-01    0.20       1.0  T
   9    -13.4070317 -0.130167E-03  0.750E-02    0.20       1.0  T
  10    -13.4069516  0.801103E-04  0.107E-01    0.20       1.0  T
  11    -13.4070553 -0.103682E-03  0.281E-02    0.20       1.0  T
  12    -13.4070580 -0.274486E-05  0.251E-02    0.20       1.1  T
  13    -13.4070565  0.146877E-05  0.262E-02    0.20       1.1  T
  14    -13.4070616 -0.509581E-05  0.884E-03    0.20       3.3  T
  15    -13.4070619 -0.301854E-06  0.355E-03    0.20       8.1  T
  16    -13.4070620 -0.703969E-07  0.134E-03    0.20      21.5  T
  17    -13.4070620 -0.979789E-08  0.539E-04    0.20      53.6  T
  18    -13.4070620 -0.221456E-08  0.133E-04    0.20     217.2  T
     SCC iter.                  ...        0 min,  0.004 sec
     gradient                   ...        0 min,  0.001 sec
 * total energy  :   -13.0693079 Eh     change       -0.1014418E-02 Eh
   gradient norm :     0.0401806 Eh/α   predicted    -0.2485629E-02 ( 145.03%)
   displ. norm   :     0.3334465 α      lambda       -0.5021213E-02
   maximum displ.:     0.1641423 α      in ANC's #15, #3, #17, ...

........................................................................
.............................. CYCLE   27 ..............................
........................................................................
   1    -13.4318175 -0.134318E+02  0.917E-01    0.17       0.0  T
   2    -13.4294882  0.232931E-02  0.509E-01    0.18       1.0  T
   3    -13.4015480  0.279402E-01  0.181E+00    0.13       1.0  T
   4    -13.4219901 -0.204421E-01  0.560E-01    0.17       1.0  T
   5    -13.4292488 -0.725868E-02  0.517E-01    0.16       1.0  T
   6    -13.4305772 -0.132834E-02  0.417E-01    0.16       1.0  T
   7    -13.4306330 -0.558657E-04  0.405E-01    0.16       1.0  T
   8    -13.4318886 -0.125554E-02  0.171E-01    0.16       1.0  T
   9    -13.4319634 -0.748650E-04  0.138E-01    0.16       1.0  T
  10    -13.4320591 -0.956358E-04  0.861E-02    0.16       1.0  T
  11    -13.4320895 -0.303994E-04  0.644E-02    0.16       1.0  T
  12    -13.4321199 -0.304173E-04  0.329E-02    0.16       1.0  T
  13    -13.4321296 -0.970434E-05  0.258E-03    0.17      11.2  T
  14    -13.4321296 -0.602031E-07  0.826E-04    0.17      34.9  T
  15    -13.4321296  0.117276E-07  0.125E-03    0.17      23.0  T
  16    -13.4321296 -0.119461E-07  0.231E-04    0.17     124.7  T
     SCC iter.                  ...        0 min,  0.003 sec
     gradient                   ...        0 min,  0.001 sec
 * total energy  :   -13.0710828 Eh     change       -0.1774885E-02 Eh
   gradient norm :     0.0330977 Eh/α   predicted    -0.2789752E-02 (  57.18%)
   displ. norm   :     0.5034992 α      lambda       -0.5647225E-02
   maximum displ.:     0.2597877 α      in ANC's #17, #1, #19, ...

........................................................................
.............................. CYCLE   28 ..............................
........................................................................
   1    -13.4058182 -0.134058E+02  0.133E+00    0.16       0.0  T
   2    -13.3971877  0.863058E-02  0.109E+00    0.15       1.0  T
   3    -13.2265462  0.170641E+00  0.286E+00    0.24       1.0  T
   4    -13.3658390 -0.139293E+00  0.167E+00    0.12       1.0  T
   5    -13.3998277 -0.339887E-01  0.618E-01    0.14       1.0  T
   6    -13.4053562 -0.552855E-02  0.356E-01    0.15       1.0  T
   7    -13.4059967 -0.640511E-03  0.395E-01    0.16       1.0  T
   8    -13.4041909  0.180588E-02  0.536E-01    0.17       1.0  T
   9    -13.3972451  0.694571E-02  0.773E-01    0.19       1.0  T
  10    -13.4060476 -0.880246E-02  0.399E-01    0.16       1.0  T
  11    -13.4065088 -0.461227E-03  0.264E-01    0.16       1.0  T
  12    -13.4066086 -0.997640E-04  0.120E-01    0.16       1.0  T
  13    -13.4066106 -0.205343E-05  0.134E-01    0.15       1.0  T
  14    -13.4066279 -0.172496E-04  0.122E-01    0.16       1.0  T
  15    -13.4066401 -0.121812E-04  0.924E-02    0.16       1.0  T
  16    -13.4066479 -0.778124E-05  0.832E-03    0.16       3.5  T
  17    -13.4066483 -0.401592E-06  0.865E-03    0.16       3.3  T
  18    -13.4066484 -0.170087E-06  0.616E-03    0.16       4.7  T
  19    -13.4066486 -0.186993E-06  0.496E-04    0.16      58.2  T
  20    -13.4066486 -0.513266E-09  0.101E-04    0.16     286.5  T
     SCC iter.                  ...        0 min,  0.004 sec
     gradient                   ...        0 min,  0.000 sec
 * total energy  :   -13.0730220 Eh     change       -0.1939200E-02 Eh
   gradient norm :     0.0460067 Eh/α   predicted    -0.3539430E-02 (  82.52%)
   displ. norm   :     0.3745968 α      lambda       -0.3847093E-02
   maximum displ.:     0.2269268 α      in ANC's #11, #13, #16, ...

........................................................................
.............................. CYCLE   29 ..............................
........................................................................
   1    -13.4159001 -0.134159E+02  0.129E+00    0.16       0.0  T
   2    -13.4097225  0.617758E-02  0.101E+00    0.18       1.0  T
   3    -13.3002940  0.109428E+00  0.270E+00    0.11       1.0  T
   4    -13.3933399 -0.930459E-01  0.934E-01    0.17       1.0  T
   5    -13.4138655 -0.205256E-01  0.425E-01    0.17       1.0  T
   6    -13.4162479 -0.238246E-02  0.171E-01    0.18       1.0  T
   7    -13.4162051  0.427919E-04  0.163E-01    0.18       1.0  T
   8    -13.4163375 -0.132373E-03  0.575E-02    0.18       1.0  T
   9    -13.4163584 -0.209377E-04  0.629E-02    0.18       1.0  T
  10    -13.4163489  0.955111E-05  0.687E-02    0.18       1.0  T
  11    -13.4163570 -0.814220E-05  0.630E-02    0.18       1.0  T
  12    -13.4163838 -0.268148E-04  0.378E-02    0.18       1.0  T
  13    -13.4163876 -0.371221E-05  0.169E-02    0.18       1.7  T
  14    -13.4163869  0.702649E-06  0.122E-02    0.18       2.4  T
  15    -13.4163871 -0.287178E-06  0.802E-03    0.18       3.6  T
  16    -13.4163876 -0.497110E-06  0.179E-03    0.18      16.1  T
  17    -13.4163877 -0.141263E-07  0.655E-04    0.18      44.0  T
  18    -13.4163877 -0.213305E-08  0.197E-04    0.18     146.6  T
     SCC iter.                  ...        0 min,  0.003 sec
     gradient                   ...        0 min,  0.001 sec
 * total energy  :   -13.0747003 Eh     change       -0.1678333E-02 Eh
   gradient norm :     0.0291082 Eh/α   predicted    -0.2193457E-02 (  30.69%)
   displ. norm   :     0.3839151 α      lambda       -0.3516927E-02
   maximum displ.:     0.1670461 α      in ANC's #3, #19, #1, ...

........................................................................
.............................. CYCLE   30 ..............................
........................................................................
   1    -13.4252385 -0.134252E+02  0.106E+00    0.15       0.0  T
   2    -13.4236574  0.158110E-02  0.550E-01    0.16       1.0  T
   3    -13.3772619  0.463955E-01  0.225E+00    0.09       1.0  T
   4    -13.4227320 -0.454701E-01  0.506E-01    0.14       1.0  T
   5    -13.4219705  0.761476E-03  0.546E-01    0.13       1.0  T
   6    -13.4240783 -0.210772E-02  0.405E-01    0.13       1.0  T
   7    -13.4247028 -0.624536E-03  0.297E-01    0.13       1.0  T
   8    -13.4249877 -0.284947E-03  0.212E-01    0.14       1.0  T
   9    -13.4250663 -0.785641E-04  0.203E-01    0.14       1.0  T
  10    -13.4250783 -0.119440E-04  0.196E-01    0.14       1.0  T
  11    -13.4252205 -0.142202E-03  0.163E-01    0.14       1.0  T
  12    -13.4250315  0.188950E-03  0.200E-01    0.14       1.0  T
  13    -13.4253813 -0.349816E-03  0.567E-02    0.14       1.0  T
  14    -13.4254040 -0.226712E-04  0.230E-02    0.14       1.3  T
  15    -13.4254063 -0.230654E-05  0.148E-02    0.14       2.0  T
  16    -13.4254067 -0.367125E-06  0.521E-03    0.14       5.5  T
  17    -13.4254067 -0.146104E-07  0.227E-03    0.14      12.7  T
  18    -13.4254067 -0.262109E-07  0.879E-04    0.14      32.8  T
  19    -13.4254067 -0.494617E-08  0.257E-04    0.14     112.3  T
     SCC iter.                  ...        0 min,  0.004 sec
     gradient                   ...        0 min,  0.000 sec
 * total energy  :   -13.0759576 Eh     change       -0.1257311E-02 Eh
   gradient norm :     0.0321386 Eh/α   predicted    -0.2017646E-02 (  60.47%)
   displ. norm   :     0.3987146 α      lambda       -0.3235489E-02
   maximum displ.:     0.2222181 α      in ANC's #17, #3, #19, ...

........................................................................
.............................. CYCLE   31 ..............................
........................................................................
   1    -13.4224736 -0.134225E+02  0.106E+00    0.12       0.0  T
   2    -13.4145758  0.789788E-02  0.691E-01    0.14       1.0  T
   3    -13.3364140  0.781617E-01  0.256E+00    0.08       1.0  T
   4    -13.4053576 -0.689435E-01  0.999E-01    0.10       1.0  T
   5    -13.4202142 -0.148566E-01  0.520E-01    0.11       1.0  T
   6    -13.4214179 -0.120370E-02  0.365E-01    0.11       1.0  T
   7    -13.4222169 -0.799080E-03  0.278E-01    0.11       1.0  T
   8    -13.4226200 -0.403087E-03  0.157E-01    0.12       1.0  T
   9    -13.4228631 -0.243094E-03  0.525E-02    0.12       1.0  T
  10    -13.4228948 -0.317083E-04  0.307E-02    0.12       1.0  T
  11    -13.4228954 -0.521690E-06  0.256E-02    0.12       1.1  T
  12    -13.4228843  0.110032E-04  0.396E-02    0.12       1.0  T
  13    -13.4228964 -0.120144E-04  0.121E-02    0.12       2.4  T
  14    -13.4228968 -0.409133E-06  0.115E-02    0.12       2.5  T
  15    -13.4228966  0.147421E-06  0.986E-03    0.12       2.9  T
  16    -13.4228972 -0.592926E-06  0.235E-03    0.12      12.3  T
  17    -13.4228972 -0.535971E-08  0.125E-03    0.12      23.2  T
  18    -13.4228972 -0.684667E-08  0.945E-04    0.12      30.5  T
  19    -13.4228972 -0.733502E-08  0.328E-04    0.12      87.9  T
     SCC iter.                  ...        0 min,  0.003 sec
[...]
     gradient                   ...        0 min,  0.000 sec
 * total energy  :   -13.0842430 Eh     change       -0.6616543E-04 Eh
   gradient norm :     0.0010448 Eh/α   predicted    -0.5135193E-04 ( -22.39%)
   displ. norm   :     0.0501572 α      lambda       -0.2373049E-04
   maximum displ.:     0.0320933 α      in ANC's #8, #5, #10, ...

........................................................................
.............................. CYCLE   72 ..............................
........................................................................
   1    -13.4219074 -0.134219E+02  0.109E-01    0.17       0.0  T
   2    -13.4218965  0.108449E-04  0.704E-02    0.17       1.0  T
   3    -13.4205273  0.136923E-02  0.191E-01    0.18       1.0  T
   4    -13.4218847 -0.135738E-02  0.326E-02    0.17       1.0  T
   5    -13.4219077 -0.229612E-04  0.127E-02    0.17       2.3  T
   6    -13.4219078 -0.139541E-06  0.811E-03    0.17       3.6  T
   7    -13.4219081 -0.345657E-06  0.468E-03    0.17       6.2  T
   8    -13.4219085 -0.341946E-06  0.188E-03    0.17      15.4  T
   9    -13.4219085  0.311850E-07  0.160E-03    0.17      18.1  T
  10    -13.4219085 -0.482408E-07  0.421E-04    0.17      68.6  T
  11    -13.4219085  0.963748E-09  0.316E-04    0.17      91.3  T
     SCC iter.                  ...        0 min,  0.002 sec
     gradient                   ...        0 min,  0.001 sec
 * total energy  :   -13.0842449 Eh     change       -0.1907123E-05 Eh
   gradient norm :     0.0010005 Eh/α   predicted    -0.1187918E-04 ( 522.89%)
   displ. norm   :     0.0366976 α      lambda       -0.1657704E-04
   maximum displ.:     0.0181837 α      in ANC's #11, #7, #14, ...

........................................................................
.............................. CYCLE   73 ..............................
........................................................................
   1    -13.4219013 -0.134219E+02  0.121E-01    0.17       0.0  T
   2    -13.4218947  0.666088E-05  0.795E-02    0.17       1.0  T
   3    -13.4207454  0.114932E-02  0.179E-01    0.18       1.0  T
   4    -13.4218930 -0.114758E-02  0.278E-02    0.17       1.0  T
   5    -13.4218863  0.661616E-05  0.323E-02    0.17       1.0  T
   6    -13.4218919 -0.556689E-05  0.203E-02    0.17       1.4  T
   7    -13.4219016 -0.970405E-05  0.679E-03    0.17       4.2  T
   8    -13.4219025 -0.871494E-06  0.238E-03    0.17      12.1  T
   9    -13.4219025 -0.661355E-08  0.169E-03    0.17      17.1  T
  10    -13.4219025 -0.433298E-07  0.539E-04    0.17      53.6  T
  11    -13.4219025 -0.216357E-09  0.409E-04    0.17      70.5  T
     SCC iter.                  ...        0 min,  0.002 sec
     gradient                   ...        0 min,  0.001 sec
 * total energy  :   -13.0842526 Eh     change       -0.7706333E-05 Eh
   gradient norm :     0.0008141 Eh/α   predicted    -0.8293482E-05 (   7.62%)
   displ. norm   :     0.0234753 α      lambda       -0.9006106E-05
   maximum displ.:     0.0109406 α      in ANC's #2, #11, #5, ...

........................................................................
.............................. CYCLE   74 ..............................
........................................................................
   1    -13.4217761 -0.134218E+02  0.523E-02    0.17       0.0  T
   2    -13.4217634  0.126411E-04  0.385E-02    0.17       1.0  T
   3    -13.4213728  0.390575E-03  0.104E-01    0.17       1.0  T
   4    -13.4217497 -0.376884E-03  0.328E-02    0.17       1.0  T
   5    -13.4217764 -0.266601E-04  0.844E-03    0.17       3.4  T
   6    -13.4217764  0.354731E-07  0.798E-03    0.17       3.6  T
   7    -13.4217769 -0.589902E-06  0.362E-03    0.17       8.0  T
   8    -13.4217770 -0.789594E-07  0.158E-03    0.17      18.3  T
   9    -13.4217770 -0.170952E-07  0.977E-04    0.17      29.5  T
  10    -13.4217771 -0.138602E-07  0.386E-04    0.17      74.9  T
     SCC iter.                  ...        0 min,  0.002 sec
     gradient                   ...        0 min,  0.000 sec
 * total energy  :   -13.0842575 Eh     change       -0.4814352E-05 Eh
   gradient norm :     0.0007681 Eh/α   predicted    -0.4503917E-05 (  -6.45%)
   displ. norm   :     0.0168486 α      lambda       -0.3573084E-05
   maximum displ.:     0.0081705 α      in ANC's #8, #6, #1, ...

   *** GEOMETRY OPTIMIZATION CONVERGED AFTER 74 ITERATIONS ***

------------------------------------------------------------------------
 total energy gain   :        -0.7433104 Eh     -466.4343 kcal/mol
 total RMSD          :         2.8770910 a0        1.5225 Å
 total power (kW/mol):       -26.3724497 (step)-6872.3254 (real)
------------------------------------------------------------------------

 ANCopt (total)                0 d,  0 h,  0 min,  0.284 sec
 optimizer setup                ...        0 min,  0.000 sec (  0.014%)
 model hessian                  ...        0 min,  0.001 sec (  0.276%)
 ANC generation                 ...        0 min,  0.000 sec (  0.128%)
 coordinate transformation      ...        0 min,  0.000 sec (  0.063%)
 single point calculation       ...        0 min,  0.275 sec ( 96.851%)
 optimization log               ...        0 min,  0.003 sec (  1.139%)
 hessian update                 ...        0 min,  0.002 sec (  0.586%)
 rational function              ...        0 min,  0.002 sec (  0.542%)

================
 final structure:
================
12
 xtb: 6.5.1 (conda-forge)
Be           0.96879282790902        0.38852491674177       -1.17515518581536
B            1.58005712827668        0.39824867664547        0.36515836185985
C            2.07986716446804        0.40854093754788        1.66524114118859
C            2.55589552053852        0.40570466748698        2.84240368531111
C            3.00388386482270        0.42833088372383        4.06477203766382
C            3.26315300353221        0.58735521897121        5.29759362380383
H            4.46775903713373       -0.07080401454435        5.87082814236583
H            5.23043565884946       -0.53197925653684        6.05408892409131
H            3.22255393862728        2.54089051231834        5.93292731040642
H            3.20775908505682        3.31461625442370        6.13981257639099
H            1.75608228156455        0.00111693540736        6.57599682755374
H            1.15776048922644       -0.25287773220782        7.04333255519663

 Bond Distances (Angstroems)
 ---------------------------
Be1-B2=1.6572        B2-Be1=1.6572        B2-C3=1.3929         C3-B2=1.3929         C3-C4=1.2698         C4-C3=1.2698         
C4-C5=1.3021         C5-C4=1.3021         C5-C6=1.2698         C6-C5=1.2698         H9-H10=0.8010        H10-H9=0.8010        
H11-H12=0.8006       H12-H11=0.8006       
 H  H  Rav=0.8008 sigma=0.0002  Rmin=0.8006  Rmax=0.8010     2
 B  Be Rav=1.6572 sigma=0.0000  Rmin=1.6572  Rmax=1.6572     1
 C  B  Rav=1.3929 sigma=0.0000  Rmin=1.3929  Rmax=1.3929     1
 C  C  Rav=1.2805 sigma=0.0152  Rmin=1.2698  Rmax=1.3021     3

 selected bond angles (degree)
 --------------------
C3-B2-Be1=179.38               C4-C3-B2=178.87                C5-C4-C3=177.80                C6-C5-C4=169.70                

 selected dihedral angles (degree)
 ---------------------------------
C4-C3-B2-Be1=158.91           C5-C4-C3-B2=178.41            C6-C5-C4-C3=353.50            

 CMA Distance (Angstroems)
 ---------------------------
R(CMA):  4.6733
           -------------------------------------------------
          |                Final Singlepoint                |
           -------------------------------------------------

          ...................................................
          :                      SETUP                      :
          :.................................................:
          :  # basis functions                  30          :
          :  # atomic orbitals                  30          :
          :  # shells                           18          :
          :  # electrons                        27          :
          :  max. iterations                   250          :
          :  Hamiltonian                  GFN2-xTB          :
          :  restarted?                      false          :
          :  GBSA solvation                  false          :
          :  PC potential                    false          :
          :  electronic temp.          300.0000000     K    :
          :  accuracy                    1.0000000          :
          :  -> integral cutoff          0.2500000E+02      :
          :  -> integral neglect         0.1000000E-07      :
          :  -> SCF convergence          0.1000000E-05 Eh   :
          :  -> wf. convergence          0.1000000E-03 e    :
          :  Broyden damping             0.4000000          :
          ...................................................

 iter      E             dE          RMSdq      gap      omega  full diag
   1    -13.4217771 -0.134218E+02  0.169E-04    0.17       0.0  T
   2    -13.4217771  0.163322E-08  0.247E-04    0.17     117.0  T
   3    -13.4217771 -0.100306E-08  0.181E-04    0.17     159.9  T

   *** convergence criteria satisfied after 3 iterations ***

         #    Occupation            Energy/Eh            Energy/eV
      -------------------------------------------------------------
         1        2.0000           -0.5721359             -15.5686
       ...           ...                  ...                  ...
         8        2.0000           -0.4080152             -11.1027
         9        2.0000           -0.4058360             -11.0434
        10        2.0000           -0.3927387             -10.6870
        11        2.0000           -0.3434452              -9.3456
        12        2.0000           -0.3418811              -9.3031
        13        2.0000           -0.3135407              -8.5319
        14        0.9647           -0.2785683              -7.5802 (HOMO)
        15        0.0353           -0.2722854              -7.4093 (LUMO)
        16                         -0.2467281              -6.7138
        17                         -0.1981955              -5.3932
        18                         -0.1962964              -5.3415
        19                         -0.0964424              -2.6243
       ...                                ...                  ...
        30                          1.4708333              40.0234
      -------------------------------------------------------------
                  HL-Gap            0.0062829 Eh            0.1710 eV
             Fermi-level           -0.2857410 Eh           -7.7754 eV

 SCC (total)                   0 d,  0 h,  0 min,  0.002 sec
 SCC setup                      ...        0 min,  0.000 sec (  1.904%)
 Dispersion                     ...        0 min,  0.000 sec (  4.500%)
 classical contributions        ...        0 min,  0.000 sec (  3.021%)
 integral evaluation            ...        0 min,  0.000 sec ( 12.148%)
 iterations                     ...        0 min,  0.001 sec ( 36.428%)
 molecular gradient             ...        0 min,  0.001 sec ( 38.993%)
 printout                       ...        0 min,  0.000 sec (  2.439%)

         :::::::::::::::::::::::::::::::::::::::::::::::::::::
         ::                     SUMMARY                     ::
         :::::::::::::::::::::::::::::::::::::::::::::::::::::
         :: total energy             -13.084257462385 Eh    ::
         :: gradient norm              0.000768917016 Eh/a0 ::
         :: HOMO-LUMO gap              0.170967130363 eV    ::
         ::.................................................::
         :: SCC energy               -13.421777054060 Eh    ::
         :: -> isotropic ES           -0.013127915297 Eh    ::
         :: -> anisotropic ES          0.026742257539 Eh    ::
         :: -> anisotropic XC          0.009050500565 Eh    ::
         :: -> dispersion             -0.006769153815 Eh    ::
         :: repulsion energy           0.337550040336 Eh    ::
         :: add. restraining           0.000000000000 Eh    ::
         :: total charge              -0.000000000014 e     ::
         :::::::::::::::::::::::::::::::::::::::::::::::::::::

           -------------------------------------------------
          |                Property Printout                |
           -------------------------------------------------

    * Orbital Energies and Occupations

         #    Occupation            Energy/Eh            Energy/eV
      -------------------------------------------------------------
         1        2.0000           -0.5721359             -15.5686
         2        2.0000           -0.5560281             -15.1303
         3        2.0000           -0.5161878             -14.0462
         4        2.0000           -0.4607836             -12.5386
         5        2.0000           -0.4376596             -11.9093
         6        2.0000           -0.4265963             -11.6083
         7        2.0000           -0.4241244             -11.5410
         8        2.0000           -0.4080152             -11.1027
         9        2.0000           -0.4058360             -11.0434
        10        2.0000           -0.3927387             -10.6870
        11        2.0000           -0.3434452              -9.3456
        12        2.0000           -0.3418811              -9.3031
        13        2.0000           -0.3135407              -8.5319
        14        0.9647           -0.2785683              -7.5802 (HOMO)
        15        0.0353           -0.2722854              -7.4093 (LUMO)
        16                         -0.2467281              -6.7138
        17                         -0.1981955              -5.3932
        18                         -0.1962964              -5.3415
        19                         -0.0964424              -2.6243
        20                         -0.0908366              -2.4718
        21                          0.0038825               0.1056
        22                          0.0101597               0.2765
        23                          0.1607219               4.3735
        24                          0.1933578               5.2615
        25                          0.2062624               5.6127
       ...                                ...                  ...
        30                          1.4708333              40.0234
      -------------------------------------------------------------
                  HL-Gap            0.0062829 Eh            0.1710 eV
             Fermi-level           -0.2857410 Eh           -7.7754 eV

     #   Z          covCN         q      C6AA      α(0)
     1   4 Be       0.912     0.391    65.887    24.345
     2   5 B        1.819    -0.006    44.845    14.107
     3   6 C        1.889    -0.124    34.591     9.499
     4   6 C        1.963    -0.004    31.166     9.015
     5   6 C        1.963    -0.036    32.044     9.142
     6   6 C        1.285    -0.185    43.125    11.104
     7   1 H        0.539     0.080     2.733     2.773
     8   1 H        0.236    -0.081    11.940     6.295
     9   1 H        0.728     0.025     2.794     2.645
    10   1 H        0.728    -0.042     4.087     3.199
    11   1 H        0.730     0.024     2.795     2.645
    12   1 H        0.730    -0.042     4.077     3.194

 Mol. C6AA /au·bohr⁶  :       2476.636112
 Mol. C8AA /au·bohr⁸  :      67448.215321
 Mol. α(0) /au        :         97.965698


Wiberg/Mayer (AO) data.
largest (>0.10) Wiberg bond orders for each atom

 ---------------------------------------------------------------------------
     #   Z sym  total        # sym  WBO       # sym  WBO       # sym  WBO
 ---------------------------------------------------------------------------
     1   4 Be   1.480 --     2 B    1.313     3 C    0.142
     2   5 B    3.285 --     3 C    1.692     1 Be   1.313     5 C    0.122
     3   6 C    3.940 --     4 C    1.944     2 B    1.692     6 C    0.151
                             1 Be   0.142
     4   6 C    3.791 --     3 C    1.944     5 C    1.621
     5   6 C    3.910 --     6 C    2.090     4 C    1.621     2 B    0.122
     6   6 C    2.965 --     5 C    2.090     7 H    0.281     3 C    0.151
                             8 H    0.118
     7   1 H    0.991 --     8 H    0.702     6 C    0.281
     8   1 H    0.899 --     7 H    0.702     6 C    0.118
     9   1 H    0.999 --    10 H    0.945
    10   1 H    0.986 --     9 H    0.945
    11   1 H    0.999 --    12 H    0.946
    12   1 H    0.985 --    11 H    0.946
 ---------------------------------------------------------------------------

Topologies differ in total number of bonds
Writing topology from bond orders to xtbtopo.mol

molecular dipole:
                 x           y           z       tot (Debye)
 q only:       -1.398      -0.103      -3.917
   full:       -1.918      -0.196      -5.550      14.934
molecular quadrupole (traceless):
                xx          xy          yy          xz          yz          zz
 q only:        2.394      -2.123      18.112     -29.123      -5.798     -20.506
  q+dip:       -0.471      -3.802      16.640     -31.335      -9.101     -16.170
   full:        1.969      -4.692      19.568     -34.433      -9.065     -21.537

           -------------------------------------------------
          |                Geometry Summary                 |
           -------------------------------------------------

      molecular mass/u    :       73.9137992
   center of mass at/Å    :        2.3805731       0.4711764       2.6769260
  moments of inertia/u·Å² :        0.2862198E+02   0.4447817E+03   0.4466358E+03
rotational constants/cm⁻¹ :        0.5889751E+00   0.3790091E-01   0.3774358E-01

 * 5 selected distances

     #   Z          #   Z                                           value/Å
     1   4 Be       2   5 B                                       1.6571979 (max)
     2   5 B        3   6 C                                       1.3928861
     3   6 C        4   6 C                                       1.2697728 (min)
     4   6 C        5   6 C                                       1.3020715
     5   6 C        6   6 C                                       1.2697868

 * 3 distinct bonds (by element types)

   Z      Z             #   av. dist./Å        max./Å        min./Å
   4 Be   5 B           1     1.6571979     1.6571979     1.6571979
   5 B    6 C           1     1.3928861     1.3928861     1.3928861
   6 C    6 C           3     1.2805437     1.3020715     1.2697728


optimized geometry written to: xtbopt.xyz


           -------------------------------------------------
          | TOTAL ENERGY              -13.084257462385 Eh   |
          | GRADIENT NORM               0.000768917016 Eh/α |
          | HOMO-LUMO GAP               0.170967130363 eV   |
Note: The following floating-point exceptions are signalling: IEEE_UNDERFLOW_FLAG
normal termination of xtb
           -------------------------------------------------
########################################################################
[WARNING] Runtime exception occurred
-3- restart_readRestart: Dimension missmatch in restart file.
-2- restart_readRestart: Multiplicity missmatch in restart file.
-1- restart_readRestart: Number of electron missmatch in restart file.
########################################################################

------------------------------------------------------------------------
 * finished run on 2025/06/07 at 03:27:50.928     
------------------------------------------------------------------------
 total:
 * wall-time:     0 d,  0 h,  0 min,  0.353 sec
 *  cpu-time:     0 d,  0 h,  0 min,  4.952 sec
 * ratio c/w:    14.026 speedup
 SCF:
 * wall-time:     0 d,  0 h,  0 min,  0.061 sec
 *  cpu-time:     0 d,  0 h,  0 min,  0.851 sec
 * ratio c/w:    14.048 speedup
 ANC optimizer:
 * wall-time:     0 d,  0 h,  0 min,  0.289 sec
 *  cpu-time:     0 d,  0 h,  0 min,  4.065 sec
 * ratio c/w:    14.052 speedup

