      -----------------------------------------------------------      
     |                   =====================                   |     
     |                           x T B                           |     
     |                   =====================                   |     
     |                         S. Grimme                         |     
     |          Mulliken Center for Theoretical Chemistry        |     
     |                    University of Bonn                     |     
      -----------------------------------------------------------      

   * xtb version 6.5.1 (conda-forge) compiled by 'runner@Mac-1657629245115.local' on 2022-07-12

   xtb is free software: you can redistribute it and/or modify it under
   the terms of the GNU Lesser General Public License as published by
   the Free Software Foundation, either version 3 of the License, or
   (at your option) any later version.
   
   xtb is distributed in the hope that it will be useful,
   but WITHOUT ANY WARRANTY; without even the implied warranty of
   MERCHANTABILITY or FITNESS FOR A PARTICULAR PURPOSE.  See the
   GNU Lesser General Public License for more details.
   
   Cite this work as:
   * C. Bannwarth, E. Caldeweyher, S. Ehlert, A. Hansen, P. Pracht,
     J. Seibert, S. Spicher, S. Grimme, WIREs Comput. Mol. Sci., 2020, 11,
     e01493. DOI: 10.1002/wcms.1493
   
   for GFN2-xTB:
   * C. Bannwarth, S. Ehlert and S. Grimme., J. Chem. Theory Comput., 2019,
     15, 1652-1671. DOI: 10.1021/acs.jctc.8b01176
   for GFN1-xTB:
   * S. Grimme, C. Bannwarth, P. Shushkov, J. Chem. Theory Comput., 2017,
     13, 1989-2009. DOI: 10.1021/acs.jctc.7b00118
   for GFN0-xTB:
   * P. Pracht, E. Caldeweyher, S. Ehlert, S. Grimme, ChemRxiv, 2019, preprint.
     DOI: 10.26434/chemrxiv.8326202.v1
   for GFN-FF:
   * S. Spicher and S. Grimme, Angew. Chem. Int. Ed., 2020, 59, 15665-15673.
     DOI: 10.1002/anie.202004239
   
   for ALPB and GBSA implicit solvation:
   * S. Ehlert, M. Stahn, S. Spicher, S. Grimme, J. Chem. Theory Comput.,
     2021, 17, 4250-4261. DOI: 10.1021/acs.jctc.1c00471
   
   for DFT-D4:
   * E. Caldeweyher, C. Bannwarth and S. Grimme, J. Chem. Phys., 2017,
     147, 034112. DOI: 10.1063/1.4993215
   * E. Caldeweyher, S. Ehlert, A. Hansen, H. Neugebauer, S. Spicher,
     C. Bannwarth and S. Grimme, J. Chem. Phys., 2019, 150, 154122.
     DOI: 10.1063/1.5090222
   * E. Caldeweyher, J.-M. Mewes, S. Ehlert and S. Grimme, Phys. Chem. Chem. Phys.
     2020, 22, 8499-8512. DOI: 10.1039/D0CP00502A
   
   for sTDA-xTB:
   * S. Grimme and C. Bannwarth, J. Chem. Phys., 2016, 145, 054103.
     DOI: 10.1063/1.4959605
   
   in the mass-spec context:
   * V. Asgeirsson, C. Bauer and S. Grimme, Chem. Sci., 2017, 8, 4879.
     DOI: 10.1039/c7sc00601b
   * J. Koopman and S. Grimme, ACS Omega 2019, 4, 12, 15120-15133.
     DOI: 10.1021/acsomega.9b02011
   
   for metadynamics refer to:
   * S. Grimme, J. Chem. Theory Comput., 2019, 155, 2847-2862
     DOI: 10.1021/acs.jctc.9b00143
   
   for SPH calculations refer to:
   * S. Spicher and S. Grimme, J. Chem. Theory Comput., 2021, 17, 1701-1714
     DOI: 10.1021/acs.jctc.0c01306
   
   with help from (in alphabetical order)
   P. Atkinson, C. Bannwarth, F. Bohle, G. Brandenburg, E. Caldeweyher
   M. Checinski, S. Dohm, S. Ehlert, S. Ehrlich, I. Gerasimov, C. Hölzer
   A. Katbashev, J. Koopman, C. Lavigne, S. Lehtola, F. März, M. Müller,
   F. Musil, H. Neugebauer, J. Pisarek, C. Plett, P. Pracht, F. Pultar,
   J. Seibert, P. Shushkov, S. Spicher, M. Stahn, M. Steiner, T. Strunk,
   J. Stückrath, T. Rose, and J. Unsleber
   
 * started run on 2025/06/07 at 03:27:50.941     

           -------------------------------------------------
          |                Calculation Setup                |
           -------------------------------------------------

          program call               : xtb BBeCH6.xyz --gfn 2 --opt
          coordinate file            : BBeCH6.xyz
          omp threads                :                    16

   ID    Z sym.   atoms
    1    4 Be     1
    2    5 B      2
    3    6 C      3
    4    1 H      4-9

molecular fragmentation (1/2 indicates fragments):
122222222
# atoms in fragment 1/2:     1     8
 fragment masses (1/2) :        9.01       28.87
CMA distance (Bohr)    :   7.429
constraining FC (au)   :  0.0500

           -------------------------------------------------
          |                 G F N 2 - x T B                 |
           -------------------------------------------------

        Reference                      10.1021/acs.jctc.8b01176
      * Hamiltonian:
        H0-scaling (s, p, d)           1.850000    2.230000    2.230000
        zeta-weighting                 0.500000
      * Dispersion:
        s8                             2.700000
        a1                             0.520000
        a2                             5.000000
        s9                             5.000000
      * Repulsion:
        kExp                           1.500000    1.000000
        rExp                           1.000000
      * Coulomb:
        alpha                          2.000000
        third order                    shell-resolved
        anisotropic                    true
        a3                             3.000000
        a5                             4.000000
        cn-shift                       1.200000
        cn-exp                         4.000000
        max-rad                        5.000000


          ...................................................
          :                      SETUP                      :
          :.................................................:
          :  # basis functions                  18          :
          :  # atomic orbitals                  18          :
          :  # shells                           12          :
          :  # electrons                        15          :
          :  max. iterations                   250          :
          :  Hamiltonian                  GFN2-xTB          :
          :  restarted?                      false          :
          :  GBSA solvation                  false          :
          :  PC potential                    false          :
          :  electronic temp.          300.0000000     K    :
          :  accuracy                    1.0000000          :
          :  -> integral cutoff          0.2500000E+02      :
          :  -> integral neglect         0.1000000E-07      :
          :  -> SCF convergence          0.1000000E-05 Eh   :
          :  -> wf. convergence          0.1000000E-03 e    :
          :  Broyden damping             0.4000000          :
          ...................................................

 iter      E             dE          RMSdq      gap      omega  full diag
   1     17.1539342  0.171539E+02  0.237E+01    2.88       0.0  T
   2     -2.6747438 -0.198287E+02  0.196E+01    0.01       1.0  T
   3     -4.0409748 -0.136623E+01  0.130E+01    1.21       1.0  T
   4     -3.2252812  0.815694E+00  0.116E+01    2.43       1.0  T
   5     -1.5939702  0.163131E+01  0.168E+01    2.07       1.0  T
   6     -3.5355613 -0.194159E+01  0.116E+01    1.74       1.0  T
   7     -4.5867202 -0.105116E+01  0.912E+00    1.71       1.0  T
   8     -4.3522458  0.234474E+00  0.980E+00    1.60       1.0  T
   9     -4.5685601 -0.216314E+00  0.960E+00    1.62       1.0  T
  10     17.6881669  0.222567E+02  0.259E+01    1.71       1.0  T
  11     13.7348635 -0.395330E+01  0.196E+01    2.43       1.0  T
  12     -4.7655290 -0.185004E+02  0.646E+00    1.48       1.0  T
  13     -5.6589575 -0.893428E+00  0.127E+01    0.30       1.0  T
  14     -5.5953165  0.636410E-01  0.129E+01    0.31       1.0  T
  15     -5.8235330 -0.228217E+00  0.120E+01    0.33       1.0  T
  16     -6.2639693 -0.440436E+00  0.902E+00    0.40       1.0  T
  17     -5.6564248  0.607544E+00  0.648E+00    1.50       1.0  T
  18     -5.9676805 -0.311256E+00  0.102E+01    0.38       1.0  T
  19     -5.9000811  0.675993E-01  0.104E+01    0.37       1.0  T
  20      2.2151667  0.811525E+01  0.139E+01    1.05       1.0  T
  21     -2.1537328 -0.436890E+01  0.133E+01    0.53       1.0  T
  22     -5.8822367 -0.372850E+01  0.101E+01    0.33       1.0  T
  23     -4.6885095  0.119373E+01  0.126E+01    0.34       1.0  T
  24     -4.5230788  0.165431E+00  0.126E+01    0.33       1.0  T
  25     -6.2457781 -0.172270E+01  0.763E+00    0.36       1.0  T
  26     -6.1681624  0.776156E-01  0.425E+00    1.05       1.0  T
  27     -6.1698832 -0.172074E-02  0.425E+00    1.04       1.0  T
  28     -5.4614165  0.708467E+00  0.455E+00    1.66       1.0  T
  29     -5.5343986 -0.729822E-01  0.452E+00    1.65       1.0  T
  30     -5.3978436  0.136555E+00  0.490E+00    1.65       1.0  T
  31     -5.4608375 -0.629939E-01  0.480E+00    1.67       1.0  T
  32     -5.4381637  0.226738E-01  0.510E+00    1.68       1.0  T
  33     -5.4562731 -0.181094E-01  0.572E+00    1.65       1.0  T
  34     -5.6187445 -0.162471E+00  0.586E+00    1.66       1.0  T
  35     -5.8765677 -0.257823E+00  0.609E+00    1.66       1.0  T
  36     -5.9538960 -0.773283E-01  0.573E+00    1.65       1.0  T
  37     -5.9408081  0.130879E-01  0.563E+00    1.65       1.0  T
  38     -5.9427906 -0.198253E-02  0.563E+00    1.65       1.0  T
  39     -5.9487845 -0.599393E-02  0.562E+00    1.65       1.0  T
  40     -6.0270268 -0.782422E-01  0.528E+00    1.56       1.0  T
  41     -6.0578179 -0.307911E-01  0.503E+00    1.48       1.0  T
  42     -6.0782043 -0.203864E-01  0.471E+00    1.42       1.0  T
  43     -6.0704764  0.772786E-02  0.443E+00    1.43       1.0  T
  44     -6.0506803  0.197961E-01  0.423E+00    1.48       1.0  T
  45     -6.0504565  0.223839E-03  0.415E+00    1.48       1.0  T
  46     -6.0571471 -0.669066E-02  0.422E+00    1.44       1.0  T
  47     -6.0389828  0.181644E-01  0.432E+00    1.47       1.0  T
  48     -6.0204453  0.185374E-01  0.434E+00    1.51       1.0  T
  49     -6.0102013  0.102441E-01  0.434E+00    1.53       1.0  T
  50     -6.0132206 -0.301936E-02  0.434E+00    1.53       1.0  T
  51     -6.0225370 -0.931634E-02  0.434E+00    1.51       1.0  T
  52     -6.0368503 -0.143133E-01  0.432E+00    1.49       1.0  T
  53     -6.0555945 -0.187441E-01  0.426E+00    1.46       1.0  T
  54     -6.0779932 -0.223988E-01  0.416E+00    1.41       1.0  T
  55     -6.1144738 -0.364806E-01  0.396E+00    1.33       1.0  T
  56     -6.2130096 -0.985358E-01  0.345E+00    1.11       1.0  T
  57     -6.2916062 -0.785966E-01  0.322E+00    0.93       1.0  T
  58     -6.2959293 -0.432310E-02  0.323E+00    0.92       1.0  T
  59     -6.2891301  0.679927E-02  0.322E+00    0.93       1.0  T
  60     -6.3289454 -0.398153E-01  0.311E+00    0.85       1.0  T
  61     -6.3617731 -0.328277E-01  0.289E+00    0.78       1.0  T
  62     -6.3480406  0.137325E-01  0.243E+00    0.82       1.0  T
  63     -6.3848311 -0.367905E-01  0.211E+00    0.74       1.0  T
  64     -6.4093414 -0.245102E-01  0.190E+00    0.67       1.0  T
  65     -6.3894647  0.198767E-01  0.187E+00    0.71       1.0  T
  66     -6.4243968 -0.349322E-01  0.150E+00    0.63       1.0  T
  67     -6.4552145 -0.308177E-01  0.148E+00    0.53       1.0  T
  68     -6.4523728  0.284171E-02  0.147E+00    0.53       1.0  T
  69     -6.4525553 -0.182574E-03  0.132E+00    0.53       1.0  T
  70     -6.4567586 -0.420322E-02  0.164E+00    0.43       1.0  T
  71     -6.4604696 -0.371106E-02  0.145E+00    0.43       1.0  T
  72     -6.4623109 -0.184125E-02  0.132E+00    0.44       1.0  T
  73     -6.4577381  0.457278E-02  0.136E+00    0.42       1.0  T
  74     -6.4568846  0.853486E-03  0.134E+00    0.41       1.0  T
  75     -6.4610001 -0.411553E-02  0.109E+00    0.42       1.0  T
  76     -6.4597043  0.129577E-02  0.898E-01    0.41       1.0  T
  77     -6.4558154  0.388900E-02  0.873E-01    0.39       1.0  T
  78     -6.4554886  0.326748E-03  0.847E-01    0.39       1.0  T
  79     -6.4648347 -0.934607E-02  0.205E-01    0.41       1.0  T
  80     -6.4642838  0.550847E-03  0.182E-01    0.41       1.0  T
  81     -6.4633746  0.909187E-03  0.238E-01    0.40       1.0  T
  82     -6.4654570 -0.208235E-02  0.181E-01    0.42       1.0  T
  83     -6.4650261  0.430926E-03  0.315E-01    0.43       1.0  T
  84     -6.4647283  0.297797E-03  0.348E-01    0.43       1.0  T
  85     -6.4642936  0.434658E-03  0.377E-01    0.44       1.0  T
  86     -6.4644917 -0.198080E-03  0.328E-01    0.44       1.0  T
  87     -6.4652409 -0.749244E-03  0.179E-01    0.43       1.0  T
  88     -6.4654225 -0.181509E-03  0.108E-01    0.43       1.0  T
  89     -6.4654826 -0.601462E-04  0.476E-02    0.43       1.0  T
  90     -6.4654837 -0.106088E-05  0.370E-02    0.43       1.0  T
  91     -6.4654784  0.522439E-05  0.291E-02    0.43       1.1  T
  92     -6.4654826 -0.417357E-05  0.132E-02    0.43       2.5  T
  93     -6.4654851 -0.250180E-05  0.516E-03    0.43       6.5  T
  94     -6.4654848  0.344532E-06  0.636E-03    0.43       5.2  T
  95     -6.4654841  0.620869E-06  0.841E-03    0.43       4.0  T
  96     -6.4654850 -0.886920E-06  0.581E-03    0.43       5.7  T
  97     -6.4654846  0.425400E-06  0.769E-03    0.43       4.3  T
  98     -6.4654850 -0.376466E-06  0.362E-03    0.43       9.2  T
  99     -6.4654850  0.109615E-07  0.278E-03    0.43      12.0  T
 100     -6.4654852 -0.240411E-06  0.830E-04    0.43      40.2  T
 101     -6.4654852  0.114884E-08  0.105E-03    0.43      31.7  T
 102     -6.4654852 -0.170683E-07  0.231E-04    0.43     144.5  T

   *** convergence criteria satisfied after 102 iterations ***

         #    Occupation            Energy/Eh            Energy/eV
      -------------------------------------------------------------
         1        2.0000           -0.5504033             -14.9772
         2        2.0000           -0.4837238             -13.1628
         3        2.0000           -0.4342825             -11.8174
         4        2.0000           -0.3610412              -9.8244
         5        2.0000           -0.3408045              -9.2738
         6        2.0000           -0.2614498              -7.1144
         7        1.6774           -0.2516729              -6.8484
         8        1.3223           -0.2502630              -6.8100 (HOMO)
         9        0.0003           -0.2344442              -6.3796 (LUMO)
        10                         -0.1990305              -5.4159
        11                         -0.1983329              -5.3969
        12                         -0.1412763              -3.8443
        13                         -0.1408052              -3.8315
       ...                                ...                  ...
        18                          0.7960899              21.6627
      -------------------------------------------------------------
                  HL-Gap            0.0158188 Eh            0.4305 eV
             Fermi-level           -0.2466122 Eh           -6.7107 eV

 SCC (total)                   0 d,  0 h,  0 min,  0.020 sec
 SCC setup                      ...        0 min,  0.000 sec (  0.285%)
 Dispersion                     ...        0 min,  0.000 sec (  0.586%)
 classical contributions        ...        0 min,  0.000 sec (  0.254%)
 integral evaluation            ...        0 min,  0.000 sec (  0.500%)
 iterations                     ...        0 min,  0.019 sec ( 95.965%)
 molecular gradient             ...        0 min,  0.000 sec (  2.209%)
 printout                       ...        0 min,  0.000 sec (  0.142%)

         :::::::::::::::::::::::::::::::::::::::::::::::::::::
         ::                     SUMMARY                     ::
         :::::::::::::::::::::::::::::::::::::::::::::::::::::
         :: total energy              -6.382294689608 Eh    ::
         :: gradient norm              0.236082508654 Eh/a0 ::
         :: HOMO-LUMO gap              0.430451997062 eV    ::
         ::.................................................::
         :: SCC energy                -6.465485226697 Eh    ::
         :: -> isotropic ES           -0.012383606787 Eh    ::
         :: -> anisotropic ES          0.006750972885 Eh    ::
         :: -> anisotropic XC         -0.014992182641 Eh    ::
         :: -> dispersion             -0.005119224253 Eh    ::
         :: repulsion energy           0.083195557296 Eh    ::
         :: add. restraining           0.000000000000 Eh    ::
         :: total charge              -0.000000000000 e     ::
         :::::::::::::::::::::::::::::::::::::::::::::::::::::

      ----------------------------------------------------------- 
     |                   =====================                   |
     |                        A N C O P T                        |
     |                   =====================                   |
     |               Approximate Normal Coordinate               |
     |                Rational Function Optimizer                |
      ----------------------------------------------------------- 

          ...................................................
          :                      SETUP                      :
          :.................................................:
          :   optimization level            normal          :
          :   max. optcycles                   200          :
          :   ANC micro-cycles                  20          :
          :   degrees of freedom                21          :
          :.................................................:
          :   RF solver                   davidson          :
          :   write xtbopt.log                true          :
          :   linear?                        false          :
          :   energy convergence         0.5000000E-05 Eh   :
          :   grad. convergence          0.1000000E-02 Eh/α :
          :   maximium RF displ.         1.0000000          :
          :   Hlow (freq-cutoff)         0.1000000E-01      :
          :   Hmax (freq-cutoff)         5.0000000          :
          :   S6 in model hess.         20.0000000          :
          ...................................................

generating ANC from model Hessian ...
Using Lindh-Hessian (1995)
 Shifting diagonal of input Hessian by    1.4135090339231274E-002
 Lowest  eigenvalues of input Hessian
    0.010000    0.014024    0.000000    0.000000    0.000000    0.000000
    0.000000    0.000000    0.014434    0.014798    0.015256    0.016059
    0.016598    0.017925    0.018836    0.021890    0.027693    0.033014
 Highest eigenvalues
    0.149370    0.204726    0.273238    0.340567    0.395271    0.426070


........................................................................
.............................. CYCLE    1 ..............................
........................................................................
   1     -6.4654852 -0.646549E+01  0.167E-04    0.43       0.0  T
   2     -6.4654851  0.154469E-06  0.299E-03    0.43      11.2  T
   3     -6.4654852 -0.141720E-06  0.939E-04    0.43      35.5  T
   4     -6.4654852  0.490196E-09  0.940E-04    0.43      35.5  T
     SCC iter.                  ...        0 min,  0.001 sec
     gradient                   ...        0 min,  0.000 sec
 * total energy  :    -6.3822947 Eh     change        0.1350214E-07 Eh
   gradient norm :     0.2360856 Eh/α   predicted     0.0000000E+00 (-100.00%)
   displ. norm   :     0.7375515 α      lambda       -0.1662789E+00
   maximum displ.:     0.5459463 α      in ANC's #16, #12, #17, ...

........................................................................
.............................. CYCLE    2 ..............................
........................................................................
   1     -6.4658848 -0.646588E+01  0.314E+00    0.80       0.0  T
   2     11.3315084  0.177974E+02  0.197E+01    2.32       1.0  T
   3     -6.1679459 -0.174995E+02  0.546E+00    0.55       1.0  T
   4     -6.4142307 -0.246285E+00  0.308E+00    0.71       1.0  T
   5     -6.3972060  0.170247E-01  0.237E+00    1.23       1.0  T
   6     -6.5545044 -0.157298E+00  0.984E-01    0.59       1.0  T
   7     -6.4775668  0.769377E-01  0.217E+00    0.77       1.0  T
   8     -6.5134084 -0.358416E-01  0.155E+00    0.76       1.0  T
   9     -6.5132003  0.208113E-03  0.154E+00    0.76       1.0  T
  10     -6.5571002 -0.438999E-01  0.724E-01    0.68       1.0  T
  11     -6.5632746 -0.617443E-02  0.707E-01    0.65       1.0  T
  12     -6.5631541  0.120558E-03  0.694E-01    0.65       1.0  T
  13     -6.5664760 -0.332193E-02  0.558E-01    0.62       1.0  T
  14     -6.5690054 -0.252946E-02  0.473E-01    0.61       1.0  T
  15     -6.5696362 -0.630728E-03  0.468E-01    0.60       1.0  T
  16     -6.5697934 -0.157201E-03  0.426E-01    0.60       1.0  T
  17     -6.5702349 -0.441557E-03  0.340E-01    0.59       1.0  T
  18     -6.5705137 -0.278741E-03  0.300E-01    0.59       1.0  T
  19     -6.5710863 -0.572626E-03  0.204E-01    0.58       1.0  T
  20     -6.5713228 -0.236449E-03  0.136E-01    0.57       1.0  T
  21     -6.5713992 -0.764114E-04  0.965E-02    0.56       1.0  T
  22     -6.5714309 -0.317066E-04  0.683E-02    0.56       1.0  T
  23     -6.5714575 -0.265933E-04  0.171E-02    0.56       2.0  T
  24     -6.5714592 -0.170564E-05  0.166E-03    0.56      20.1  T
  25     -6.5714592  0.926709E-08  0.106E-03    0.56      31.5  T
  26     -6.5714591  0.349941E-07  0.146E-03    0.56      22.8  T
  27     -6.5714592 -0.359279E-07  0.146E-03    0.56      22.9  T
  28     -6.5714592 -0.112630E-07  0.283E-04    0.56     117.8  T
  29     -6.5714592  0.413707E-09  0.313E-04    0.56     106.5  T
     SCC iter.                  ...        0 min,  0.004 sec
     gradient                   ...        0 min,  0.000 sec
 * total energy  :    -6.5191616 Eh     change       -0.1368669E+00 Eh
   gradient norm :     0.1981846 Eh/α   predicted    -0.1283658E+00 (  -6.21%)
   displ. norm   :     0.9019556 α      lambda       -0.1735177E+00
   maximum displ.:     0.5325124 α      in ANC's #16, #12, #17, ...

........................................................................
.............................. CYCLE    3 ..............................
........................................................................
   1     -6.7694557 -0.676946E+01  0.393E+00    1.01       0.0  T
   2      1.1166999  0.788616E+01  0.135E+01    0.84       1.0  T
   3     -5.9360797 -0.705278E+01  0.712E+00    3.11       1.0  T
   4     -6.0179991 -0.819194E-01  0.628E+00    2.85       1.0  T
   5     -6.7012287 -0.683230E+00  0.331E+00    1.21       1.0  T
   6     -6.5477666  0.153462E+00  0.302E+00    1.51       1.0  T
   7     -6.5349761  0.127905E-01  0.292E+00    1.56       1.0  T
   8     -6.6492896 -0.114313E+00  0.227E+00    1.31       1.0  T
   9     -6.6956728 -0.463832E-01  0.202E+00    1.22       1.0  T
  10     -6.6950851  0.587711E-03  0.203E+00    1.22       1.0  T
  11     -6.7624707 -0.673855E-01  0.115E+00    1.08       1.0  T
  12     -6.7930821 -0.306115E-01  0.467E-01    1.00       1.0  T
  13     -6.7930616  0.204894E-04  0.465E-01    1.00       1.0  T
  14     -6.8007533 -0.769168E-02  0.215E-01    0.94       1.0  T
  15     -6.8008426 -0.893181E-04  0.224E-01    0.93       1.0  T
  16     -6.8008777 -0.350316E-04  0.587E-02    0.94       1.0  T
  17     -6.8005222  0.355487E-03  0.179E-01    0.95       1.0  T
  18     -6.8007545 -0.232325E-03  0.109E-01    0.95       1.0  T
  19     -6.8008599 -0.105364E-03  0.607E-02    0.95       1.0  T
  20     -6.8008957 -0.358083E-04  0.382E-02    0.94       1.0  T
  21     -6.8009200 -0.243395E-04  0.584E-03    0.94       5.7  T
  22     -6.8009204 -0.433389E-06  0.172E-03    0.94      19.4  T
  23     -6.8009203  0.173429E-06  0.311E-03    0.94      10.7  T
  24     -6.8009204 -0.143422E-06  0.153E-03    0.94      21.8  T
  25     -6.8009204 -0.215521E-07  0.104E-03    0.94      32.0  T
  26     -6.8009205 -0.144726E-07  0.359E-04    0.94      92.7  T
  27     -6.8009205 -0.255334E-08  0.606E-05    0.94     549.6  T
     SCC iter.                  ...        0 min,  0.003 sec
     gradient                   ...        0 min,  0.000 sec
 * total energy  :    -6.5356740 Eh     change       -0.1651245E-01 Eh
   gradient norm :     0.7428211 Eh/α   predicted    -0.1573393E+00 ( 852.85%)
   displ. norm   :     0.4662090 α      lambda       -0.3358103E+00
   maximum displ.:     0.2067154 α      in ANC's #15, #18, #16, ...

........................................................................
.............................. CYCLE    4 ..............................
........................................................................
   1     -6.6509749 -0.665097E+01  0.340E+00    0.64       0.0  T
   2     -6.5638591  0.871158E-01  0.292E+00    0.60       1.0  T
   3     -2.5480392  0.401582E+01  0.120E+01    0.39       1.0  T
   4     -5.4772826 -0.292924E+01  0.799E+00    0.33       1.0  T
   5      5.4350659  0.109123E+02  0.164E+01    1.44       1.0  T
   6     -4.9756577 -0.104107E+02  0.969E+00    0.50       1.0  T
   7     -4.7569501  0.218708E+00  0.102E+01    0.50       1.0  T
   8     -5.2050754 -0.448125E+00  0.890E+00    0.43       1.0  T
   9     -5.4451917 -0.240116E+00  0.820E+00    0.44       1.0  T
  10     -4.6721566  0.773035E+00  0.102E+01    0.45       1.0  T
  11     -5.0896735 -0.417517E+00  0.916E+00    0.42       1.0  T
  12     -5.0942519 -0.457835E-02  0.914E+00    0.42       1.0  T
  13     -6.4416607 -0.134741E+01  0.316E+00    0.52       1.0  T
  14     -6.2482039  0.193457E+00  0.397E+00    0.46       1.0  T
  15     -5.8555991  0.392605E+00  0.585E+00    0.51       1.0  T
  16     -5.9319501 -0.763510E-01  0.528E+00    0.48       1.0  T
  17     -5.9532102 -0.212601E-01  0.491E+00    0.50       1.0  T
  18     -5.9474140  0.579618E-02  0.492E+00    0.50       1.0  T
  19     -6.0390677 -0.916537E-01  0.461E+00    0.51       1.0  T
  20     -6.3253481 -0.286280E+00  0.305E+00    0.50       1.0  T
  21     -6.3353180 -0.996986E-02  0.302E+00    0.50       1.0  T
  22     -6.3684579 -0.331400E-01  0.286E+00    0.52       1.0  T
  23     -6.4489119 -0.804540E-01  0.249E+00    0.48       1.0  T
  24     -6.5255501 -0.766382E-01  0.211E+00    0.47       1.0  T
  25     -6.4913852  0.341649E-01  0.263E+00    0.46       1.0  T
  26     -6.5267878 -0.354025E-01  0.223E+00    0.46       1.0  T
  27     -6.5351568 -0.836900E-02  0.295E+00    0.48       1.0  T
  28     -6.6267901 -0.916333E-01  0.208E+00    0.55       1.0  T
  29     -6.6477802 -0.209901E-01  0.174E+00    0.58       1.0  T
  30     -6.6514303 -0.365003E-02  0.165E+00    0.58       1.0  T
  31     -6.6704569 -0.190267E-01  0.103E+00    0.62       1.0  T
  32     -6.6740167 -0.355981E-02  0.781E-01    0.66       1.0  T
  33     -6.6721101  0.190660E-02  0.947E-01    0.68       1.0  T
  34     -6.6740795 -0.196934E-02  0.738E-01    0.70       1.0  T
  35     -6.6739752  0.104251E-03  0.430E-01    0.72       1.0  T
  36     -6.6743776 -0.402386E-03  0.374E-01    0.73       1.0  T
  37     -6.6739213  0.456260E-03  0.333E-01    0.74       1.0  T
  38     -6.6748367 -0.915347E-03  0.372E-01    0.73       1.0  T
  39     -6.6748335  0.318871E-05  0.364E-01    0.73       1.0  T
  40     -6.6746982  0.135251E-03  0.194E-01    0.72       1.0  T
  41     -6.6746221  0.761706E-04  0.154E-01    0.72       1.0  T
  42     -6.6745507  0.713425E-04  0.147E-01    0.72       1.0  T
  43     -6.6746888 -0.138087E-03  0.126E-01    0.72       1.0  T
  44     -6.6747897 -0.100866E-03  0.112E-01    0.72       1.0  T
  45     -6.6748310 -0.413282E-04  0.100E-01    0.72       1.0  T
  46     -6.6748319 -0.865750E-06  0.938E-02    0.71       1.0  T
  47     -6.6748303  0.155152E-05  0.897E-02    0.71       1.0  T
  48     -6.6748439 -0.135841E-04  0.646E-02    0.71       1.0  T
  49     -6.6748470 -0.308659E-05  0.318E-02    0.72       1.0  T
  50     -6.6748446  0.239348E-05  0.179E-02    0.71       1.9  T
  51     -6.6748449 -0.337311E-06  0.166E-02    0.71       2.0  T
  52     -6.6748469 -0.192579E-05  0.115E-02    0.71       2.9  T
  53     -6.6748477 -0.807143E-06  0.176E-03    0.71      18.9  T
  54     -6.6748477  0.196715E-07  0.137E-03    0.71      24.4  T
  55     -6.6748477 -0.236857E-07  0.789E-04    0.71      42.2  T
  56     -6.6748477 -0.434226E-08  0.334E-04    0.71      99.9  T
     SCC iter.                  ...        0 min,  0.009 sec
     gradient                   ...        0 min,  0.000 sec
 * total energy  :    -6.6096511 Eh     change       -0.7397706E-01 Eh
   gradient norm :     0.1460396 Eh/α   predicted    -0.2043994E+00 ( 176.30%)
   displ. norm   :     0.6770042 α      lambda       -0.5091385E-01
   maximum displ.:     0.5782139 α      in ANC's #12, #11, #1, ...

........................................................................
.............................. CYCLE    5 ..............................
........................................................................
   1     -6.7283966 -0.672840E+01  0.240E+00    1.00       0.0  T
   2     -6.6486437  0.797529E-01  0.279E+00    1.35       1.0  T
   3     -6.1162597  0.532384E+00  0.407E+00    0.54       1.0  T
   4     -6.4373468 -0.321087E+00  0.371E+00    2.96       1.0  T
   5     -6.4591215 -0.217747E-01  0.337E+00    2.87       1.0  T
   6     -6.6905602 -0.231439E+00  0.118E+00    1.59       1.0  T
   7     -6.6975273 -0.696715E-02  0.108E+00    1.52       1.0  T
   8     -6.7144483 -0.169209E-01  0.833E-01    1.42       1.0  T
   9     -6.7359108 -0.214625E-01  0.380E-01    1.22       1.0  T
  10     -6.7357135  0.197252E-03  0.383E-01    1.22       1.0  T
  11     -6.7407502 -0.503661E-02  0.555E-02    1.12       1.0  T
  12     -6.7408066 -0.564740E-04  0.333E-02    1.12       1.0  T
  13     -6.7408211 -0.144956E-04  0.125E-02    1.11       2.7  T
  14     -6.7408211 -0.708745E-08  0.114E-02    1.11       2.9  T
  15     -6.7408253 -0.418036E-05  0.348E-03    1.11       9.6  T
  16     -6.7408255 -0.197116E-06  0.161E-03    1.11      20.7  T
  17     -6.7408256 -0.446263E-07  0.502E-04    1.11      66.4  T
  18     -6.7408256 -0.124781E-08  0.411E-04    1.11      81.1  T
     SCC iter.                  ...        0 min,  0.002 sec
     gradient                   ...        0 min,  0.000 sec
 * total energy  :    -6.6615270 Eh     change       -0.5187590E-01 Eh
   gradient norm :     0.1172436 Eh/α   predicted    -0.3712472E-01 ( -28.44%)
   displ. norm   :     0.9260579 α      lambda       -0.7392830E-01
   maximum displ.:     0.7541606 α      in ANC's #12, #11, #20, ...

........................................................................
.............................. CYCLE    6 ..............................
........................................................................
   1     -6.8348410 -0.683484E+01  0.350E+00    2.01       0.0  T
   2     -6.7280391  0.106802E+00  0.346E+00    2.41       1.0  T
   3     -5.6772305  0.105081E+01  0.613E+00    0.66       1.0  T
   4     -6.5920262 -0.914796E+00  0.388E+00    3.45       1.0  T
   5     -6.5440630  0.479632E-01  0.327E+00    3.62       1.0  T
   6     -6.8034166 -0.259354E+00  0.139E+00    2.31       1.0  T
   7     -6.8057067 -0.229017E-02  0.119E+00    2.35       1.0  T
   8     -6.8495563 -0.438496E-01  0.165E-01    1.90       1.0  T
   9     -6.8501628 -0.606532E-03  0.130E-01    1.85       1.0  T
  10     -6.8500918  0.710722E-04  0.668E-02    1.81       1.0  T
  11     -6.8502002 -0.108487E-03  0.166E-02    1.83       2.0  T
  12     -6.8502056 -0.530528E-05  0.574E-03    1.83       5.8  T
  13     -6.8502064 -0.895184E-06  0.196E-03    1.82      17.0  T
  14     -6.8502065 -0.398288E-07  0.151E-03    1.82      22.1  T
  15     -6.8502065 -0.487971E-07  0.696E-04    1.83      47.9  T
  16     -6.8502065 -0.107044E-07  0.241E-04    1.83     138.5  T
     SCC iter.                  ...        0 min,  0.002 sec
     gradient                   ...        0 min,  0.000 sec
 * total energy  :    -6.6967857 Eh     change       -0.3525869E-01 Eh
   gradient norm :     0.1641288 Eh/α   predicted    -0.6866392E-01 (  94.74%)
   displ. norm   :     0.6547597 α      lambda       -0.9194345E-01
   maximum displ.:     0.3610363 α      in ANC's #15, #16, #20, ...

........................................................................
.............................. CYCLE    7 ..............................
........................................................................
   1     -6.9259673 -0.692597E+01  0.222E+00    1.63       0.0  T
   2     -5.9241995  0.100177E+01  0.490E+00    0.49       1.0  T
   3     -6.7449586 -0.820759E+00  0.242E+00    2.87       1.0  T
   4     -6.8698893 -0.124931E+00  0.164E+00    2.12       1.0  T
   5     -6.8846206 -0.147313E-01  0.111E+00    1.98       1.0  T
   6     -6.9099524 -0.253318E-01  0.896E-01    1.78       1.0  T
   7     -6.9192489 -0.929649E-02  0.733E-01    1.67       1.0  T
   8     -6.9153647  0.388422E-02  0.798E-01    1.70       1.0  T
   9     -6.9289667 -0.136020E-01  0.520E-01    1.55       1.0  T
  10     -6.9375380 -0.857135E-02  0.154E-01    1.27       1.0  T
  11     -6.9381998 -0.661794E-03  0.729E-02    1.31       1.0  T
  12     -6.9383485 -0.148668E-03  0.290E-02    1.32       1.2  T
  13     -6.9383774 -0.289598E-04  0.830E-04    1.33      40.2  T
  14     -6.9383772  0.195927E-06  0.241E-03    1.33      13.8  T
  15     -6.9383774 -0.200208E-06  0.990E-05    1.33     336.7  T
  16     -6.9383774 -0.849987E-11  0.291E-05    1.33    1145.5  T
     SCC iter.                  ...        0 min,  0.002 sec
     gradient                   ...        0 min,  0.000 sec
 * total energy  :    -6.6908851 Eh     change        0.5900622E-02 Eh
   gradient norm :     0.4443256 Eh/α   predicted    -0.6568025E-01 (*******%)
   displ. norm   :     0.3148159 α      lambda       -0.8656437E-01
   maximum displ.:     0.1271852 α      in ANC's #18, #16, #12, ...

........................................................................
.............................. CYCLE    8 ..............................
........................................................................
   1     -6.8595267 -0.685953E+01  0.123E+00    1.22       0.0  T
   2     -6.7812132  0.783135E-01  0.178E+00    2.21       1.0  T
   3     -6.7767343  0.447887E-02  0.181E+00    1.01       1.0  T
   4     -6.8569933 -0.802590E-01  0.637E-01    1.59       1.0  T
   5     -6.8599613 -0.296798E-02  0.352E-01    1.56       1.0  T
   6     -6.8644280 -0.446667E-02  0.188E-01    1.42       1.0  T
   7     -6.8641451  0.282912E-03  0.112E-01    1.47       1.0  T
   8     -6.8644326 -0.287509E-03  0.392E-02    1.43       1.0  T
   9     -6.8644295  0.306902E-05  0.159E-02    1.44       2.1  T
  10     -6.8644338 -0.424498E-05  0.349E-03    1.43       9.6  T
  11     -6.8644341 -0.367682E-06  0.776E-04    1.43      43.0  T
  12     -6.8644341 -0.135474E-07  0.308E-04    1.43     108.2  T
     SCC iter.                  ...        0 min,  0.001 sec
     gradient                   ...        0 min,  0.000 sec
 * total energy  :    -6.7254242 Eh     change       -0.3453908E-01 Eh
   gradient norm :     0.0486849 Eh/α   predicted    -0.4757186E-01 (  37.73%)
   displ. norm   :     0.4250574 α      lambda       -0.1449412E-01
   maximum displ.:     0.2364147 α      in ANC's #9, #12, #14, ...

........................................................................
.............................. CYCLE    9 ..............................
........................................................................
   1     -6.8845329 -0.688453E+01  0.148E+00    1.91       0.0  T
   2     -6.8719579  0.125750E-01  0.129E+00    2.03       1.0  T
   3     -6.7169490  0.155009E+00  0.256E+00    1.23       1.0  T
   4     -6.7950683 -0.781193E-01  0.186E+00    2.75       1.0  T
   5     -6.8421317 -0.470633E-01  0.117E+00    2.43       1.0  T
   6     -6.8840522 -0.419205E-01  0.312E-01    1.91       1.0  T
   7     -6.8851865 -0.113432E-02  0.229E-01    1.91       1.0  T
   8     -6.8863396 -0.115315E-02  0.488E-02    1.84       1.0  T
   9     -6.8863049  0.347325E-04  0.432E-02    1.82       1.0  T
  10     -6.8863523 -0.473712E-04  0.101E-02    1.84       3.3  T
  11     -6.8863554 -0.310868E-05  0.131E-03    1.84      25.5  T
  12     -6.8863554 -0.251242E-07  0.416E-04    1.84      80.2  T
  13     -6.8863554 -0.326874E-09  0.125E-04    1.84     267.4  T
     SCC iter.                  ...        0 min,  0.002 sec
     gradient                   ...        0 min,  0.000 sec
 * total energy  :    -6.7329620 Eh     change       -0.7537847E-02 Eh
   gradient norm :     0.0387888 Eh/α   predicted    -0.8556413E-02 (  13.51%)
   displ. norm   :     0.3462533 α      lambda       -0.5348229E-02
   maximum displ.:     0.1917048 α      in ANC's #1, #7, #6, ...

........................................................................
.............................. CYCLE   10 ..............................
........................................................................
   1     -6.8881534 -0.688815E+01  0.592E-01    1.89       0.0  T
   2     -6.8846761  0.347731E-02  0.532E-01    1.58       1.0  T
   3     -6.8659893  0.186868E-01  0.950E-01    2.12       1.0  T
   4     -6.8865212 -0.205320E-01  0.367E-01    1.76       1.0  T
   5     -6.8869525 -0.431239E-03  0.226E-01    1.92       1.0  T
   6     -6.8888155 -0.186302E-02  0.450E-02    1.83       1.0  T
   7     -6.8888382 -0.227429E-04  0.287E-02    1.81       1.2  T
   8     -6.8888396 -0.133180E-05  0.784E-03    1.81       4.3  T
   9     -6.8888400 -0.387353E-06  0.374E-03    1.81       8.9  T
  10     -6.8888400 -0.333225E-07  0.657E-04    1.81      50.7  T
  11     -6.8888400 -0.210135E-08  0.217E-04    1.81     153.6  T
     SCC iter.                  ...        0 min,  0.001 sec
     gradient                   ...        0 min,  0.000 sec
 * total energy  :    -6.7363558 Eh     change       -0.3393794E-02 Eh
   gradient norm :     0.0283784 Eh/α   predicted    -0.2994716E-02 ( -11.76%)
   displ. norm   :     0.4830904 α      lambda       -0.5817731E-02
   maximum displ.:     0.2187018 α      in ANC's #7, #1, #9, ...

........................................................................
.............................. CYCLE   11 ..............................
........................................................................
   1     -6.8751823 -0.687518E+01  0.125E+00    1.94       0.0  T
   2     -6.8674888  0.769356E-02  0.144E+00    0.65       1.0  T
   3     -6.8452994  0.221894E-01  0.157E+00    1.77       1.0  T
   4     -6.8777025 -0.324031E-01  0.904E-01    1.20       1.0  T
   5     -6.8891216 -0.114191E-01  0.484E-01    1.81       1.0  T
   6     -6.8860831  0.303847E-02  0.665E-01    1.74       1.0  T
   7     -6.8926613 -0.657814E-02  0.201E-01    1.81       1.0  T
   8     -6.8933325 -0.671286E-03  0.508E-02    1.79       1.0  T
   9     -6.8933399 -0.731603E-05  0.193E-02    1.79       1.7  T
  10     -6.8933449 -0.501970E-05  0.131E-02    1.80       2.5  T
  11     -6.8933470 -0.215082E-05  0.621E-03    1.80       5.4  T
  12     -6.8933475 -0.432472E-06  0.150E-03    1.80      22.2  T
  13     -6.8933475 -0.101690E-07  0.839E-04    1.80      39.7  T
  14     -6.8933475 -0.616624E-08  0.287E-04    1.80     116.3  T
     SCC iter.                  ...        0 min,  0.001 sec
     gradient                   ...        0 min,  0.000 sec
 * total energy  :    -6.7403104 Eh     change       -0.3954565E-02 Eh
   gradient norm :     0.0337925 Eh/α   predicted    -0.3587724E-02 (  -9.28%)
   displ. norm   :     0.5553580 α      lambda       -0.5392262E-02
   maximum displ.:     0.2479372 α      in ANC's #6, #9, #7, ...

........................................................................
.............................. CYCLE   12 ..............................
........................................................................
   1     -6.8796503 -0.687965E+01  0.156E+00    1.96       0.0  T
   2     -6.8847599 -0.510957E-02  0.152E+00    0.46       1.0  T
   3     -6.8848547 -0.948491E-04  0.125E+00    1.49       1.0  T
   4     -6.8655534  0.193013E-01  0.125E+00    1.07       1.0  T
   5     -6.9001252 -0.345718E-01  0.605E-01    1.84       1.0  T
   6     -6.8300029  0.701223E-01  0.231E+00    1.83       1.0  T
   7     -6.9033613 -0.733584E-01  0.484E-01    1.59       1.0  T
   8     -6.9041982 -0.836902E-03  0.420E-01    1.68       1.0  T
   9     -6.9047096 -0.511445E-03  0.359E-01    1.75       1.0  T
  10     -6.9056946 -0.984946E-03  0.222E-01    1.81       1.0  T
  11     -6.9056622  0.323484E-04  0.229E-01    1.81       1.0  T
  12     -6.9062112 -0.548936E-03  0.106E-01    1.83       1.0  T
  13     -6.9063092 -0.980443E-04  0.604E-02    1.84       1.0  T
  14     -6.9063301 -0.208668E-04  0.463E-02    1.85       1.0  T
  15     -6.9063521 -0.220677E-04  0.215E-02    1.84       1.6  T
  16     -6.9063555 -0.337781E-05  0.156E-02    1.85       2.1  T
  17     -6.9063589 -0.339550E-05  0.110E-03    1.85      30.4  T
  18     -6.9063589  0.278692E-07  0.166E-03    1.85      20.1  T
  19     -6.9063589 -0.327557E-07  0.700E-04    1.85      47.6  T
  20     -6.9063589 -0.627560E-08  0.178E-04    1.85     187.7  T
     SCC iter.                  ...        0 min,  0.003 sec
     gradient                   ...        0 min,  0.000 sec
 * total energy  :    -6.7424973 Eh     change       -0.2186947E-02 Eh
   gradient norm :     0.0324793 Eh/α   predicted    -0.3527676E-02 (  61.31%)
   displ. norm   :     0.4011963 α      lambda       -0.4344038E-02
   maximum displ.:     0.1560343 α      in ANC's #1, #9, #3, ...

........................................................................
.............................. CYCLE   13 ..............................
........................................................................
   1     -6.8722314 -0.687223E+01  0.152E+00    1.98       0.0  T
   2     -6.8819317 -0.970037E-02  0.151E+00    0.46       1.0  T
   3     -6.8950596 -0.131278E-01  0.910E-01    1.16       1.0  T
   4     -6.8950574  0.219994E-05  0.721E-01    1.68       1.0  T
   5     -6.8833784  0.116789E-01  0.790E-01    1.56       1.0  T
   6     -6.8998161 -0.164377E-01  0.431E-01    1.86       1.0  T
   7     -6.9021412 -0.232506E-02  0.145E-01    1.86       1.0  T
   8     -6.8887440  0.133972E-01  0.957E-01    1.96       1.0  T
   9     -6.9015573 -0.128133E-01  0.231E-01    1.84       1.0  T
  10     -6.9021974 -0.640110E-03  0.921E-02    1.87       1.0  T
  11     -6.9023111 -0.113701E-03  0.271E-02    1.88       1.2  T
  12     -6.9023189 -0.779774E-05  0.173E-02    1.88       1.9  T
  13     -6.9023223 -0.341964E-05  0.521E-03    1.88       6.4  T
  14     -6.9023220  0.354944E-06  0.578E-03    1.88       5.8  T
  15     -6.9023224 -0.451892E-06  0.104E-03    1.88      31.9  T
  16     -6.9023224 -0.730225E-08  0.760E-04    1.88      43.9  T
  17     -6.9023224 -0.372586E-08  0.418E-04    1.88      79.7  T
     SCC iter.                  ...        0 min,  0.002 sec
     gradient                   ...        0 min,  0.000 sec
 * total energy  :    -6.7437710 Eh     change       -0.1273702E-02 Eh
   gradient norm :     0.0272374 Eh/α   predicted    -0.2521624E-02 (  97.98%)
   displ. norm   :     0.4820074 α      lambda       -0.4914709E-02
   maximum displ.:     0.2358246 α      in ANC's #2, #1, #9, ...

........................................................................
.............................. CYCLE   14 ..............................
........................................................................
   1     -6.8530458 -0.685305E+01  0.133E+00    1.98       0.0  T
   2     -6.8579452 -0.489941E-02  0.133E+00    0.75       1.0  T
   3     -6.8647852 -0.684008E-02  0.889E-01    1.34       1.0  T
   4     -6.8485275  0.162578E-01  0.954E-01    2.24       1.0  T
   5     -6.8383125  0.102149E-01  0.155E+00    1.90       1.0  T
   6     -6.8707783 -0.324658E-01  0.313E-01    1.91       1.0  T
   7     -6.8687729  0.200541E-02  0.486E-01    1.79       1.0  T
   8     -6.8717845 -0.301157E-02  0.830E-02    1.89       1.0  T
   9     -6.8609858  0.107987E-01  0.840E-01    1.97       1.0  T
  10     -6.8716828 -0.106970E-01  0.992E-02    1.88       1.0  T
  11     -6.8715434  0.139391E-03  0.135E-01    1.88       1.0  T
  12     -6.8714050  0.138385E-03  0.166E-01    1.87       1.0  T
  13     -6.8715302 -0.125125E-03  0.139E-01    1.88       1.0  T
  14     -6.8716731 -0.142901E-03  0.100E-01    1.89       1.0  T
  15     -6.8717796 -0.106568E-03  0.552E-02    1.89       1.0  T
  16     -6.8718193 -0.396447E-04  0.219E-02    1.90       1.5  T
  17     -6.8718261 -0.686649E-05  0.594E-03    1.90       5.6  T
  18     -6.8718267 -0.527996E-06  0.121E-03    1.90      27.5  T
  19     -6.8718267 -0.194181E-07  0.472E-04    1.90      70.7  T
  20     -6.8718267 -0.332656E-08  0.399E-05    1.90     834.9  T
     SCC iter.                  ...        0 min,  0.003 sec
     gradient                   ...        0 min,  0.000 sec
 * total energy  :    -6.7405689 Eh     change        0.3202160E-02 Eh
   gradient norm :     0.0576252 Eh/α   predicted    -0.3028285E-02 (-194.57%)
   displ. norm   :     0.2475318 α      lambda       -0.9501321E-02
   maximum displ.:     0.1268704 α      in ANC's #9, #2, #8, ...

........................................................................
.............................. CYCLE   15 ..............................
........................................................................
   1     -6.9003111 -0.690031E+01  0.706E-01    1.85       0.0  T
   2     -6.7660039  0.134307E+00  0.311E+00    1.97       1.0  T
   3     -6.9005527 -0.134549E+00  0.462E-01    1.84       1.0  T
   4     -6.8872420  0.133107E-01  0.747E-01    2.18       1.0  T
   5     -6.9014291 -0.141871E-01  0.113E-01    1.89       1.0  T
   6     -6.9014637 -0.345378E-04  0.858E-02    1.90       1.0  T
   7     -6.9014749 -0.111972E-04  0.505E-02    1.88       1.0  T
   8     -6.9015569 -0.820595E-04  0.149E-02    1.91       2.2  T
   9     -6.9015568  0.692461E-07  0.132E-02    1.90       2.5  T
  10     -6.9015587 -0.190430E-05  0.166E-03    1.90      20.1  T
  11     -6.9015587  0.797071E-07  0.224E-03    1.90      14.9  T
  12     -6.9015588 -0.878504E-07  0.608E-04    1.90      54.8  T
  13     -6.9015588 -0.302443E-08  0.115E-04    1.90     290.2  T
     SCC iter.                  ...        0 min,  0.001 sec
     gradient                   ...        0 min,  0.000 sec
 * total energy  :    -6.7452512 Eh     change       -0.4682302E-02 Eh
   gradient norm :     0.0129651 Eh/α   predicted    -0.5041741E-02 (   7.68%)
   displ. norm   :     0.2173892 α      lambda       -0.1376086E-02
   maximum displ.:     0.1082827 α      in ANC's #9, #6, #8, ...

........................................................................
.............................. CYCLE   16 ..............................
........................................................................
   1     -6.9005542 -0.690055E+01  0.661E-01    1.87       0.0  T
   2     -6.8961237  0.443048E-02  0.745E-01    1.60       1.0  T
   3     -6.8936983  0.242539E-02  0.738E-01    1.95       1.0  T
   4     -6.8939383 -0.239985E-03  0.618E-01    1.52       1.0  T
   5     -6.8953404 -0.140212E-02  0.630E-01    1.78       1.0  T
   6     -6.8977220 -0.238158E-02  0.491E-01    1.70       1.0  T
   7     -6.8996217 -0.189967E-02  0.342E-01    1.78       1.0  T
   8     -6.9004870 -0.865313E-03  0.238E-01    1.81       1.0  T
   9     -6.9012588 -0.771803E-03  0.703E-02    1.86       1.0  T
  10     -6.9012088  0.499792E-04  0.908E-02    1.86       1.0  T
  11     -6.9013068 -0.979938E-04  0.414E-02    1.85       1.0  T
  12     -6.9013318 -0.249741E-04  0.828E-03    1.85       4.0  T
  13     -6.9013319 -0.138061E-06  0.766E-03    1.85       4.4  T
  14     -6.9013328 -0.831194E-06  0.188E-03    1.86      17.7  T
  15     -6.9013328 -0.445168E-07  0.838E-04    1.85      39.8  T
  16     -6.9013328 -0.102759E-07  0.148E-04    1.85     225.0  T
     SCC iter.                  ...        0 min,  0.002 sec
     gradient                   ...        0 min,  0.000 sec
 * total energy  :    -6.7455555 Eh     change       -0.3042947E-03 Eh
   gradient norm :     0.0123186 Eh/α   predicted    -0.7205547E-03 ( 136.80%)
   displ. norm   :     0.1767466 α      lambda       -0.7945185E-03
   maximum displ.:     0.1328709 α      in ANC's #1, #7, #3, ...

........................................................................
.............................. CYCLE   17 ..............................
........................................................................
   1     -6.9009041 -0.690090E+01  0.449E-01    1.89       0.0  T
   2     -6.8982531  0.265098E-02  0.524E-01    1.80       1.0  T
   3     -6.8734023  0.248508E-01  0.138E+00    1.92       1.0  T
   4     -6.8961171 -0.227147E-01  0.520E-01    1.68       1.0  T
   5     -6.8958045  0.312554E-03  0.565E-01    1.87       1.0  T
   6     -6.8987409 -0.293638E-02  0.362E-01    1.76       1.0  T
   7     -6.8996592 -0.918277E-03  0.307E-01    1.83       1.0  T
   8     -6.9004582 -0.799037E-03  0.199E-01    1.85       1.0  T
   9     -6.9009865 -0.528267E-03  0.682E-02    1.88       1.0  T
  10     -6.9010374 -0.509345E-04  0.337E-02    1.87       1.0  T
  11     -6.9010549 -0.174492E-04  0.638E-03    1.88       5.2  T
  12     -6.9010525  0.240148E-05  0.140E-02    1.87       2.4  T
  13     -6.9010554 -0.291920E-05  0.171E-03    1.87      19.5  T
  14     -6.9010554 -0.436785E-07  0.224E-04    1.88     148.8  T
  15     -6.9010554 -0.106907E-09  0.178E-04    1.88     187.1  T
     SCC iter.                  ...        0 min,  0.002 sec
     gradient                   ...        0 min,  0.000 sec
 * total energy  :    -6.7460285 Eh     change       -0.4730757E-03 Eh
   gradient norm :     0.0058048 Eh/α   predicted    -0.4096687E-03 ( -13.40%)
   displ. norm   :     0.2198975 α      lambda       -0.4937662E-03
   maximum displ.:     0.1237683 α      in ANC's #1, #4, #3, ...

........................................................................
.............................. CYCLE   18 ..............................
........................................................................
   1     -6.8988554 -0.689886E+01  0.420E-01    1.90       0.0  T
   2     -6.8983055  0.549893E-03  0.342E-01    1.85       1.0  T
   3     -6.7893126  0.108993E+00  0.269E+00    2.08       1.0  T
   4     -6.8911183 -0.101806E+00  0.579E-01    2.04       1.0  T
   5     -6.8977808 -0.666241E-02  0.238E-01    1.83       1.0  T
   6     -6.8987287 -0.947979E-03  0.100E-01    1.87       1.0  T
   7     -6.8987354 -0.666882E-05  0.981E-02    1.89       1.0  T
   8     -6.8988497 -0.114259E-03  0.421E-02    1.88       1.0  T
   9     -6.8988770 -0.273772E-04  0.702E-03    1.89       4.8  T
  10     -6.8988778 -0.745832E-06  0.164E-03    1.89      20.3  T
  11     -6.8988777  0.887791E-07  0.289E-03    1.89      11.5  T
  12     -6.8988778 -0.119244E-06  0.810E-04    1.89      41.1  T
  13     -6.8988778 -0.630136E-08  0.183E-04    1.89     181.7  T
     SCC iter.                  ...        0 min,  0.002 sec
     gradient                   ...        0 min,  0.000 sec
 * total energy  :    -6.7462698 Eh     change       -0.2412450E-03 Eh
   gradient norm :     0.0076906 Eh/α   predicted    -0.2588186E-03 (   7.28%)
   displ. norm   :     0.2218170 α      lambda       -0.3767401E-03
   maximum displ.:     0.1145296 α      in ANC's #1, #4, #7, ...

........................................................................
.............................. CYCLE   19 ..............................
........................................................................
   1     -6.8981713 -0.689817E+01  0.252E-01    1.89       0.0  T
   2     -6.8957285  0.244282E-02  0.435E-01    1.81       1.0  T
   3     -6.8955766  0.151949E-03  0.443E-01    1.91       1.0  T
   4     -6.8968473 -0.127072E-02  0.318E-01    1.84       1.0  T
   5     -6.8974294 -0.582129E-03  0.221E-01    1.84       1.0  T
   6     -6.8979722 -0.542809E-03  0.127E-01    1.90       1.0  T
   7     -6.8982234 -0.251204E-03  0.598E-02    1.88       1.0  T
   8     -6.8982708 -0.474027E-04  0.131E-02    1.89       2.5  T
   9     -6.8982643  0.648724E-05  0.238E-02    1.89       1.4  T
  10     -6.8982731 -0.873976E-05  0.451E-03    1.88       7.4  T
  11     -6.8982734 -0.308337E-06  0.918E-04    1.88      36.3  T
  12     -6.8982734 -0.116165E-07  0.282E-04    1.88     118.1  T
     SCC iter.                  ...        0 min,  0.002 sec
     gradient                   ...        0 min,  0.000 sec
 * total energy  :    -6.7465533 Eh     change       -0.2835469E-03 Eh
   gradient norm :     0.0084977 Eh/α   predicted    -0.1976412E-03 ( -30.30%)
   displ. norm   :     0.3137551 α      lambda       -0.5022871E-03
   maximum displ.:     0.1521055 α      in ANC's #1, #14, #3, ...

........................................................................
.............................. CYCLE   20 ..............................
........................................................................
   1     -6.9003966 -0.690040E+01  0.306E-01    1.87       0.0  T
   2     -6.8941076  0.628898E-02  0.669E-01    1.91       1.0  T
   3     -6.8991461 -0.503849E-02  0.350E-01    1.83       1.0  T
   4     -6.8984123  0.733820E-03  0.357E-01    1.91       1.0  T
   5     -6.8988164 -0.404056E-03  0.281E-01    1.78       1.0  T
   6     -6.8998320 -0.101561E-02  0.185E-01    1.89       1.0  T
   7     -6.9004233 -0.591300E-03  0.442E-02    1.88       1.0  T
   8     -6.9004479 -0.245824E-04  0.569E-03    1.87       5.9  T
   9     -6.9004459  0.195518E-05  0.128E-02    1.88       2.6  T
  10     -6.9004485 -0.262434E-05  0.120E-03    1.88      27.7  T
  11     -6.9004485 -0.180619E-07  0.418E-04    1.88      79.8  T
  12     -6.9004485 -0.230608E-08  0.119E-04    1.88     280.4  T
     SCC iter.                  ...        0 min,  0.002 sec
     gradient                   ...        0 min,  0.001 sec
 * total energy  :    -6.7468670 Eh     change       -0.3136384E-03 Eh
   gradient norm :     0.0071744 Eh/α   predicted    -0.2758658E-03 ( -12.04%)
   displ. norm   :     0.2921483 α      lambda       -0.3056636E-03
   maximum displ.:     0.1597229 α      in ANC's #1, #14, #4, ...
 * RMSD in coord.:     1.6673415 α      energy gain  -0.3645723E+00 Eh

generating ANC from model Hessian ...
Using Lindh-Hessian (1995)
 Shifting diagonal of input Hessian by    1.4958154770238621E-002
 Lowest  eigenvalues of input Hessian
    0.010000    0.014641    0.014724    0.014750    0.014778    0.014883
    0.014929    0.000000    0.000000    0.000000    0.000000    0.000000
    0.000000    0.014985    0.014999    0.015088    0.015558    0.015772
 Highest eigenvalues
    0.258008    0.338676    0.424032    0.578481    0.717372    1.802771


........................................................................
.............................. CYCLE   21 ..............................
........................................................................
   1     -6.8993561 -0.689936E+01  0.224E-01    1.86       0.0  T
   2     -6.8719489  0.274073E-01  0.133E+00    1.95       1.0  T
   3     -6.8992638 -0.273149E-01  0.171E-01    1.86       1.0  T
   4     -6.8992039  0.598713E-04  0.104E-01    1.83       1.0  T
   5     -6.8993189 -0.114963E-03  0.986E-02    1.88       1.0  T
   6     -6.8994256 -0.106688E-03  0.623E-02    1.87       1.0  T
   7     -6.8994842 -0.586507E-04  0.232E-02    1.87       1.4  T
   8     -6.8994896 -0.542732E-05  0.104E-02    1.87       3.2  T
   9     -6.8994905 -0.850227E-06  0.570E-03    1.87       5.8  T
  10     -6.8994909 -0.441643E-06  0.267E-03    1.87      12.5  T
  11     -6.8994910 -0.109635E-06  0.176E-04    1.87     189.4  T
  12     -6.8994910 -0.260781E-09  0.543E-05    1.87     613.6  T
     SCC iter.                  ...        0 min,  0.002 sec
     gradient                   ...        0 min,  0.000 sec
 * total energy  :    -6.7470649 Eh     change       -0.1979183E-03 Eh
   gradient norm :     0.0075805 Eh/α   predicted     0.0000000E+00 (-100.00%)
   displ. norm   :     0.1608883 α      lambda       -0.5295888E-03
   maximum displ.:     0.1098996 α      in ANC's #14, #12, #11, ...

........................................................................
.............................. CYCLE   22 ..............................
........................................................................
   1     -6.8991770 -0.689918E+01  0.437E-01    1.80       0.0  T
   2     -6.7534400  0.145737E+00  0.311E+00    1.96       1.0  T
   3     -6.8996927 -0.146253E+00  0.316E-01    1.82       1.0  T
   4     -6.9002920 -0.599285E-03  0.153E-01    1.81       1.0  T
   5     -6.9004667 -0.174758E-03  0.146E-01    1.89       1.0  T
   6     -6.9007634 -0.296650E-03  0.788E-02    1.87       1.0  T
   7     -6.9007495  0.138667E-04  0.589E-02    1.85       1.0  T
   8     -6.9008201 -0.705870E-04  0.247E-02    1.87       1.3  T
   9     -6.9008279 -0.782764E-05  0.437E-03    1.87       7.6  T
  10     -6.9008278  0.938434E-07  0.447E-03    1.86       7.5  T
  11     -6.9008282 -0.338632E-06  0.737E-04    1.86      45.2  T
  12     -6.9008282 -0.420741E-08  0.515E-04    1.86      64.7  T
     SCC iter.                  ...        0 min,  0.002 sec
     gradient                   ...        0 min,  0.000 sec
 * total energy  :    -6.7474750 Eh     change       -0.4101284E-03 Eh
   gradient norm :     0.0058752 Eh/α   predicted    -0.2716487E-03 ( -33.76%)
   displ. norm   :     0.3286163 α      lambda       -0.8011188E-03
   maximum displ.:     0.2636328 α      in ANC's #14, #12, #1, ...

........................................................................
.............................. CYCLE   23 ..............................
........................................................................
   1     -6.8973493 -0.689735E+01  0.629E-01    1.64       0.0  T
   2     -6.7526330  0.144716E+00  0.305E+00    1.96       1.0  T
   3     -6.8975749 -0.144942E+00  0.473E-01    1.69       1.0  T
   4     -6.8892129  0.836196E-02  0.585E-01    1.53       1.0  T
   5     -6.8983767 -0.916379E-02  0.322E-01    1.77       1.0  T
   6     -6.8989483 -0.571604E-03  0.246E-01    1.80       1.0  T
   7     -6.8991493 -0.200954E-03  0.221E-01    1.80       1.0  T
   8     -6.8991851 -0.358818E-04  0.214E-01    1.81       1.0  T
   9     -6.8968885  0.229668E-02  0.423E-01    1.89       1.0  T
  10     -6.8995435 -0.265508E-02  0.136E-01    1.86       1.0  T
  11     -6.8998326 -0.289038E-03  0.964E-03    1.83       3.5  T
  12     -6.8998219  0.106590E-04  0.272E-02    1.83       1.2  T
  13     -6.8998317 -0.979708E-05  0.109E-02    1.83       3.0  T
  14     -6.8998336 -0.185765E-05  0.172E-03    1.84      19.4  T
  15     -6.8998336 -0.283744E-07  0.129E-03    1.84      25.9  T
  16     -6.8998336 -0.199599E-07  0.569E-04    1.84      58.6  T
  17     -6.8998336 -0.459321E-08  0.145E-04    1.84     229.3  T
     SCC iter.                  ...        0 min,  0.003 sec
     gradient                   ...        0 min,  0.000 sec
 * total energy  :    -6.7479068 Eh     change       -0.4317646E-03 Eh
   gradient norm :     0.0071374 Eh/α   predicted    -0.4438183E-03 (   2.79%)
   displ. norm   :     0.1503255 α      lambda       -0.3819680E-03
   maximum displ.:     0.0794683 α      in ANC's #13, #1, #14, ...

........................................................................
.............................. CYCLE   24 ..............................
........................................................................
   1     -6.8993994 -0.689940E+01  0.313E-01    1.77       0.0  T
   2     -6.8342606  0.651388E-01  0.201E+00    1.97       1.0  T
   3     -6.8993713 -0.651107E-01  0.250E-01    1.79       1.0  T
   4     -6.8921259  0.724539E-02  0.502E-01    1.61       1.0  T
   5     -6.8996862 -0.756028E-02  0.141E-01    1.80       1.0  T
   6     -6.8998567 -0.170513E-03  0.933E-02    1.81       1.0  T
   7     -6.8998826 -0.259353E-04  0.832E-02    1.81       1.0  T
   8     -6.8999607 -0.780603E-04  0.322E-02    1.82       1.0  T
   9     -6.8998807  0.800459E-04  0.764E-02    1.84       1.0  T
  10     -6.8999597 -0.790195E-04  0.331E-02    1.83       1.0  T
  11     -6.8999768 -0.170869E-04  0.291E-03    1.83      11.4  T
  12     -6.8999766  0.212075E-06  0.423E-03    1.83       7.9  T
  13     -6.8999768 -0.273307E-06  0.794E-04    1.83      42.0  T
  14     -6.8999768 -0.782362E-08  0.351E-04    1.83      95.0  T
     SCC iter.                  ...        0 min,  0.002 sec
     gradient                   ...        0 min,  0.000 sec
 * total energy  :    -6.7481308 Eh     change       -0.2240732E-03 Eh
   gradient norm :     0.0076260 Eh/α   predicted    -0.1952985E-03 ( -12.84%)
   displ. norm   :     0.2092108 α      lambda       -0.4475791E-03
   maximum displ.:     0.1098748 α      in ANC's #13, #1, #5, ...

........................................................................
.............................. CYCLE   25 ..............................
........................................................................
   1     -6.8965294 -0.689653E+01  0.310E-01    1.82       0.0  T
   2     -6.8954507  0.107874E-02  0.372E-01    1.74       1.0  T
   3     -6.8955509 -0.100207E-03  0.253E-01    1.74       1.0  T
   4     -6.8885073  0.704362E-02  0.548E-01    2.04       1.0  T
   5     -6.8963524 -0.784512E-02  0.111E-01    1.85       1.0  T
   6     -6.8967370 -0.384631E-03  0.370E-02    1.82       1.0  T
   7     -6.8967609 -0.238945E-04  0.123E-02    1.80       2.7  T
   8     -6.8967612 -0.310567E-06  0.379E-03    1.80       8.8  T
   9     -6.8967607  0.577124E-06  0.742E-03    1.81       4.5  T
  10     -6.8967613 -0.681847E-06  0.110E-03    1.80      30.3  T
  11     -6.8967614 -0.296573E-07  0.274E-04    1.80     121.7  T
  12     -6.8967614 -0.611191E-09  0.143E-04    1.80     233.8  T
     SCC iter.                  ...        0 min,  0.001 sec
     gradient                   ...        0 min,  0.000 sec
 * total energy  :    -6.7482343 Eh     change       -0.1034405E-03 Eh
   gradient norm :     0.0054012 Eh/α   predicted    -0.2335843E-03 ( 125.82%)
   displ. norm   :     0.1020755 α      lambda       -0.2236719E-03
   maximum displ.:     0.0703089 α      in ANC's #14, #11, #12, ...

........................................................................
.............................. CYCLE   26 ..............................
........................................................................
   1     -6.8966833 -0.689668E+01  0.209E-01    1.74       0.0  T
   2     -6.8888098  0.787351E-02  0.757E-01    1.88       1.0  T
   3     -6.8968279 -0.801813E-02  0.127E-01    1.76       1.0  T
   4     -6.8963374  0.490509E-03  0.139E-01    1.73       1.0  T
   5     -6.8969546 -0.617214E-03  0.459E-02    1.80       1.0  T
   6     -6.8969512  0.340826E-05  0.382E-02    1.80       1.0  T
   7     -6.8969487  0.246254E-05  0.462E-02    1.80       1.0  T
   8     -6.8969719 -0.231662E-04  0.179E-02    1.79       1.9  T
   9     -6.8969760 -0.414866E-05  0.594E-03    1.79       5.6  T
  10     -6.8969764 -0.398085E-06  0.258E-03    1.79      12.9  T
  11     -6.8969765 -0.962156E-07  0.977E-04    1.79      34.1  T
  12     -6.8969765 -0.132787E-07  0.236E-04    1.79     141.5  T
     SCC iter.                  ...        0 min,  0.002 sec
     gradient                   ...        0 min,  0.000 sec
 * total energy  :    -6.7483492 Eh     change       -0.1149440E-03 Eh
   gradient norm :     0.0024285 Eh/α   predicted    -0.1130012E-03 (  -1.69%)
   displ. norm   :     0.1243016 α      lambda       -0.1219174E-03
   maximum displ.:     0.0621902 α      in ANC's #5, #12, #14, ...

........................................................................
.............................. CYCLE   27 ..............................
........................................................................
   1     -6.8964516 -0.689645E+01  0.231E-01    1.75       0.0  T
   2     -6.8942250  0.222661E-02  0.433E-01    1.83       1.0  T
   3     -6.8963607 -0.213570E-02  0.171E-01    1.76       1.0  T
   4     -6.8939548  0.240587E-02  0.284E-01    1.65       1.0  T
   5     -6.8965697 -0.261488E-02  0.520E-02    1.76       1.0  T
   6     -6.8965795 -0.977040E-05  0.361E-02    1.78       1.0  T
   7     -6.8965865 -0.705260E-05  0.370E-02    1.79       1.0  T
   8     -6.8965995 -0.129886E-04  0.830E-03    1.78       4.0  T
   9     -6.8966007 -0.115410E-05  0.201E-03    1.78      16.6  T
  10     -6.8966007  0.104829E-07  0.119E-03    1.78      28.0  T
  11     -6.8966007 -0.365012E-07  0.232E-04    1.78     143.7  T
  12     -6.8966007 -0.658797E-09  0.341E-05    1.78     977.9  T
     SCC iter.                  ...        0 min,  0.002 sec
     gradient                   ...        0 min,  0.000 sec
 * total energy  :    -6.7484057 Eh     change       -0.5650404E-04 Eh
   gradient norm :     0.0018331 Eh/α   predicted    -0.6190282E-04 (   9.55%)
   displ. norm   :     0.3060603 α      lambda       -0.1304964E-03
   maximum displ.:     0.1483449 α      in ANC's #5, #13, #9, ...

........................................................................
.............................. CYCLE   28 ..............................
........................................................................
   1     -6.8956272 -0.689563E+01  0.377E-01    1.72       0.0  T
   2     -6.8954269  0.200259E-03  0.264E-01    1.76       1.0  T
   3     -6.8936687  0.175823E-02  0.366E-01    1.72       1.0  T
   4     -6.8867572  0.691155E-02  0.540E-01    1.50       1.0  T
   5     -6.8956668 -0.890962E-02  0.765E-02    1.71       1.0  T
   6     -6.8956690 -0.225683E-05  0.446E-02    1.75       1.0  T
   7     -6.8956906 -0.215440E-04  0.512E-02    1.75       1.0  T
   8     -6.8957172 -0.266153E-04  0.811E-03    1.74       4.1  T
   9     -6.8957181 -0.873452E-06  0.603E-03    1.73       5.5  T
  10     -6.8957186 -0.504418E-06  0.103E-03    1.74      32.4  T
  11     -6.8957186 -0.208093E-07  0.271E-04    1.74     123.1  T
  12     -6.8957186 -0.763025E-09  0.562E-05    1.74     593.1  T
     SCC iter.                  ...        0 min,  0.002 sec
     gradient                   ...        0 min,  0.000 sec
 * total energy  :    -6.7485884 Eh     change       -0.1826601E-03 Eh
   gradient norm :     0.0020924 Eh/α   predicted    -0.6796475E-04 ( -62.79%)
   displ. norm   :     0.9157033 α      lambda       -0.5820890E-03
   maximum displ.:     0.4401900 α      in ANC's #5, #13, #9, ...

........................................................................
.............................. CYCLE   29 ..............................
........................................................................
   1     -6.8820122 -0.688201E+01  0.125E+00    1.80       0.0  T
   2     -6.8849721 -0.295986E-02  0.968E-01    0.97       1.0  T
   3     -6.8858547 -0.882629E-03  0.713E-01    1.56       1.0  T
   4     -6.8353854  0.504693E-01  0.143E+00    1.25       1.0  T
   5     -6.8560274 -0.206419E-01  0.114E+00    2.26       1.0  T
   6     -6.8875084 -0.314810E-01  0.310E-01    1.78       1.0  T
   7     -6.8896098 -0.210142E-02  0.836E-02    1.61       1.0  T
   8     -6.8896146 -0.480462E-05  0.523E-02    1.64       1.0  T
   9     -6.8896299 -0.152536E-04  0.193E-02    1.63       1.7  T
  10     -6.8896287  0.116257E-05  0.265E-02    1.63       1.3  T
  11     -6.8896353 -0.662208E-05  0.358E-03    1.63       9.3  T
  12     -6.8896356 -0.225277E-06  0.115E-03    1.63      28.9  T
  13     -6.8896356 -0.307866E-07  0.286E-04    1.63     116.7  T
  14     -6.8896356 -0.791073E-09  0.111E-04    1.63     301.2  T
     SCC iter.                  ...        0 min,  0.002 sec
     gradient                   ...        0 min,  0.000 sec
 * total energy  :    -6.7488528 Eh     change       -0.2643679E-03 Eh
   gradient norm :     0.0122195 Eh/α   predicted    -0.5350708E-03 ( 102.40%)
   displ. norm   :     0.2494211 α      lambda       -0.8701228E-03
   maximum displ.:     0.1570422 α      in ANC's #14, #5, #3, ...

........................................................................
.............................. CYCLE   30 ..............................
........................................................................
   1     -6.8932779 -0.689328E+01  0.412E-01    1.61       0.0  T
   2     -6.8927809  0.496999E-03  0.321E-01    1.67       1.0  T
   3     -6.8891054  0.367551E-02  0.462E-01    1.69       1.0  T
   4     -6.8819387  0.716674E-02  0.629E-01    1.36       1.0  T
   5     -6.8935295 -0.115909E-01  0.662E-02    1.62       1.0  T
   6     -6.8935343 -0.478159E-05  0.379E-02    1.64       1.0  T
   7     -6.8935031  0.312212E-04  0.455E-02    1.63       1.0  T
   8     -6.8935593 -0.562014E-04  0.544E-03    1.64       6.1  T
   9     -6.8935591  0.221313E-06  0.536E-03    1.64       6.2  T
  10     -6.8935594 -0.335541E-06  0.365E-04    1.64      91.3  T
  11     -6.8935594  0.992752E-09  0.294E-04    1.64     113.5  T
     SCC iter.                  ...        0 min,  0.001 sec
     gradient                   ...        0 min,  0.000 sec
 * total energy  :    -6.7494691 Eh     change       -0.6163105E-03 Eh
   gradient norm :     0.0066489 Eh/α   predicted    -0.4621286E-03 ( -25.02%)
   displ. norm   :     0.6708521 α      lambda       -0.8740965E-03
   maximum displ.:     0.3103369 α      in ANC's #5, #14, #3, ...

........................................................................
.............................. CYCLE   31 ..............................
........................................................................
   1     -6.8778149 -0.687781E+01  0.145E+00    1.86       0.0  T
   2     -6.8890960 -0.112811E-01  0.116E+00    0.46       1.0  T
   3     -6.8924998 -0.340377E-02  0.749E-01    1.06       1.0  T
   4     -6.8504706  0.420292E-01  0.137E+00    2.18       1.0  T
   5     -6.8896460 -0.391754E-01  0.774E-01    1.93       1.0  T
   6     -6.8975220 -0.787604E-02  0.244E-01    1.75       1.0  T
   7     -6.8977697 -0.247713E-03  0.204E-01    1.59       1.0  T
   8     -6.8982260 -0.456294E-03  0.580E-02    1.68       1.0  T
   9     -6.8982360 -0.998830E-05  0.521E-02    1.71       1.0  T
  10     -6.8982647 -0.287122E-04  0.308E-02    1.69       1.1  T
  11     -6.8982761 -0.114003E-04  0.696E-03    1.68       4.8  T
  12     -6.8982764 -0.289938E-06  0.476E-03    1.68       7.0  T
  13     -6.8982767 -0.259367E-06  0.651E-04    1.68      51.2  T
  14     -6.8982767 -0.405587E-08  0.437E-04    1.68      76.2  T
     SCC iter.                  ...        0 min,  0.002 sec
     gradient                   ...        0 min,  0.000 sec
 * total energy  :    -6.7498782 Eh     change       -0.4090835E-03 Eh
   gradient norm :     0.0123932 Eh/α   predicted    -0.6337402E-03 (  54.92%)
   displ. norm   :     0.2744331 α      lambda       -0.1256830E-02
   maximum displ.:     0.1314069 α      in ANC's #3, #2, #8, ...

........................................................................
.............................. CYCLE   32 ..............................
........................................................................
   1     -6.9037295 -0.690373E+01  0.618E-01    1.77       0.0  T
   2     -6.9027581  0.971369E-03  0.667E-01    1.31       1.0  T
   3     -6.9054464 -0.268821E-02  0.354E-01    1.59       1.0  T
   4     -6.8979594  0.748691E-02  0.798E-01    1.78       1.0  T
   5     -6.9036073 -0.564783E-02  0.292E-01    1.81       1.0  T
   6     -6.9057521 -0.214479E-02  0.625E-02    1.66       1.0  T
   7     -6.9056988  0.532233E-04  0.919E-02    1.63       1.0  T
   8     -6.9057938 -0.949107E-04  0.314E-02    1.67       1.1  T
   9     -6.9058053 -0.115080E-04  0.483E-03    1.67       6.9  T
  10     -6.9058054 -0.152332E-06  0.190E-03    1.66      17.6  T
  11     -6.9058054 -0.289841E-07  0.873E-04    1.66      38.2  T
  12     -6.9058055 -0.123221E-07  0.138E-04    1.66     241.0  T
     SCC iter.                  ...        0 min,  0.002 sec
     gradient                   ...        0 min,  0.000 sec
 * total energy  :    -6.7498240 Eh     change        0.5416199E-04 Eh
   gradient norm :     0.0304629 Eh/α   predicted    -0.6757440E-03 (*******%)
   displ. norm   :     0.2803977 α      lambda       -0.2495859E-02
   maximum displ.:     0.1458069 α      in ANC's #8, #1, #5, ...

........................................................................
.............................. CYCLE   33 ..............................
........................................................................
   1     -6.8952012 -0.689520E+01  0.538E-01    1.69       0.0  T
   2     -6.8945210  0.680158E-03  0.456E-01    1.46       1.0  T
   3     -6.8951376 -0.616592E-03  0.305E-01    1.69       1.0  T
   4     -6.8951574 -0.197602E-04  0.179E-01    1.57       1.0  T
   5     -6.8953629 -0.205503E-03  0.120E-01    1.65       1.0  T
   6     -6.8957253 -0.362384E-03  0.300E-02    1.62       1.1  T
   7     -6.8957100  0.152590E-04  0.406E-02    1.64       1.0  T
   8     -6.8957333 -0.232615E-04  0.495E-03    1.63       6.7  T
   9     -6.8957332  0.532950E-07  0.438E-03    1.63       7.6  T
  10     -6.8957334 -0.237940E-06  0.935E-04    1.62      35.6  T
  11     -6.8957335 -0.159594E-07  0.191E-04    1.62     174.4  T
     SCC iter.                  ...        0 min,  0.001 sec
     gradient                   ...        0 min,  0.000 sec
 * total energy  :    -6.7504805 Eh     change       -0.6564636E-03 Eh
   gradient norm :     0.0226547 Eh/α   predicted    -0.1346042E-02 ( 105.04%)
   displ. norm   :     0.2203020 α      lambda       -0.1652683E-02
   maximum displ.:     0.1211481 α      in ANC's #4, #1, #14, ...

........................................................................
.............................. CYCLE   34 ..............................
........................................................................
   1     -6.8983347 -0.689833E+01  0.418E-01    1.62       0.0  T
   2     -6.8971356  0.119913E-02  0.364E-01    1.58       1.0  T
   3     -6.8890831  0.805253E-02  0.636E-01    1.47       1.0  T
   4     -6.8923177 -0.323463E-02  0.515E-01    1.83       1.0  T
   5     -6.8982857 -0.596794E-02  0.102E-01    1.61       1.0  T
   6     -6.8985068 -0.221114E-03  0.417E-02    1.58       1.0  T
   7     -6.8985360 -0.292040E-04  0.207E-02    1.59       1.6  T
   8     -6.8985363 -0.374536E-06  0.695E-03    1.59       4.8  T
   9     -6.8985372 -0.854563E-06  0.336E-03    1.60       9.9  T
  10     -6.8985373 -0.136629E-06  0.430E-04    1.60      77.6  T
  11     -6.8985373 -0.393490E-08  0.121E-04    1.60     276.6  T
     SCC iter.                  ...        0 min,  0.001 sec
     gradient                   ...        0 min,  0.000 sec
 * total energy  :    -6.7515377 Eh     change       -0.1057205E-02 Eh
   gradient norm :     0.0067228 Eh/α   predicted    -0.8664473E-03 ( -18.04%)
   displ. norm   :     0.4853404 α      lambda       -0.1318278E-02
   maximum displ.:     0.3058687 α      in ANC's #1, #4, #13, ...

........................................................................
.............................. CYCLE   35 ..............................
........................................................................
   1     -6.9015045 -0.690150E+01  0.442E-01    1.56       0.0  T
   2     -6.9005540  0.950457E-03  0.470E-01    1.31       1.0  T
   3     -6.9007896 -0.235541E-03  0.296E-01    1.37       1.0  T
   4     -6.8948325  0.595710E-02  0.554E-01    1.67       1.0  T
   5     -6.9010641 -0.623159E-02  0.208E-01    1.59       1.0  T
   6     -6.9024475 -0.138344E-02  0.653E-02    1.50       1.0  T
   7     -6.9025214 -0.738843E-04  0.210E-02    1.47       1.6  T
   8     -6.9025220 -0.623083E-06  0.963E-03    1.47       3.5  T
   9     -6.9025229 -0.901996E-06  0.228E-03    1.47      14.6  T
  10     -6.9025229 -0.414851E-07  0.810E-04    1.47      41.2  T
  11     -6.9025230 -0.694100E-08  0.272E-04    1.47     122.8  T
     SCC iter.                  ...        0 min,  0.001 sec
     gradient                   ...        0 min,  0.000 sec
 * total energy  :    -6.7528905 Eh     change       -0.1352878E-02 Eh
   gradient norm :     0.0105507 Eh/α   predicted    -0.8144102E-03 ( -39.80%)
   displ. norm   :     0.4721065 α      lambda       -0.1811912E-02
   maximum displ.:     0.3188999 α      in ANC's #1, #4, #7, ...

........................................................................
.............................. CYCLE   36 ..............................
........................................................................
   1     -6.8947183 -0.689472E+01  0.542E-01    1.40       0.0  T
   2     -6.8931937  0.152459E-02  0.555E-01    1.15       1.0  T
   3     -6.8898908  0.330296E-02  0.506E-01    1.12       1.0  T
   4     -6.8915749 -0.168413E-02  0.463E-01    1.44       1.0  T
   5     -6.8935464 -0.197154E-02  0.285E-01    1.45       1.0  T
   6     -6.8961229 -0.257645E-02  0.904E-02    1.34       1.0  T
   7     -6.8963269 -0.204057E-03  0.217E-02    1.30       1.5  T
   8     -6.8963329 -0.598919E-05  0.131E-02    1.29       2.5  T
   9     -6.8963349 -0.191881E-05  0.233E-03    1.29      14.3  T
  10     -6.8963349 -0.270640E-07  0.735E-04    1.29      45.4  T
  11     -6.8963349 -0.672269E-08  0.247E-04    1.29     134.7  T
     SCC iter.                  ...        0 min,  0.001 sec
     gradient                   ...        0 min,  0.000 sec
 * total energy  :    -6.7543098 Eh     change       -0.1419223E-02 Eh
   gradient norm :     0.0193505 Eh/α   predicted    -0.1107877E-02 ( -21.94%)
   displ. norm   :     0.9014203 α      lambda       -0.3864659E-02
   maximum displ.:     0.5241440 α      in ANC's #1, #4, #13, ...

........................................................................
.............................. CYCLE   37 ..............................
........................................................................
   1     -6.8914482 -0.689145E+01  0.829E-01    0.89       0.0  T
   2     -6.8546759  0.367723E-01  0.130E+00    1.27       1.0  T
   3     -6.8756477 -0.209717E-01  0.986E-01    0.65       1.0  T
   4     -6.8935688 -0.179211E-01  0.293E-01    1.00       1.0  T
   5     -6.8941537 -0.584941E-03  0.127E-01    0.95       1.0  T
   6     -6.8942454 -0.917365E-04  0.110E-01    0.88       1.0  T
   7     -6.8944561 -0.210647E-03  0.450E-02    0.90       1.0  T
   8     -6.8944968 -0.407466E-04  0.901E-03    0.92       3.7  T
   9     -6.8944968  0.805791E-07  0.464E-03    0.91       7.2  T
  10     -6.8944971 -0.316600E-06  0.206E-03    0.92      16.2  T
  11     -6.8944972 -0.116560E-06  0.285E-04    0.92     116.9  T
  12     -6.8944972 -0.344484E-09  0.510E-05    0.92     653.8  T
     SCC iter.                  ...        0 min,  0.002 sec
     gradient                   ...        0 min,  0.000 sec
 * total energy  :    -6.7594093 Eh     change       -0.5099526E-02 Eh
   gradient norm :     0.0253453 Eh/α   predicted    -0.3502484E-02 ( -31.32%)
   displ. norm   :     0.8928384 α      lambda       -0.7387124E-02
   maximum displ.:     0.5359589 α      in ANC's #1, #5, #4, ...

........................................................................
.............................. CYCLE   38 ..............................
........................................................................
   1     -6.8694273 -0.686943E+01  0.283E+00    0.40       0.0  T
   2     -6.6280243  0.241403E+00  0.348E+00    2.46       1.0  T
   3     -6.5262936  0.101731E+00  0.364E+00    0.17       1.0  T
[...]
   4     -6.9962708 -0.201067E-04  0.133E-02    0.99       2.5  T
   5     -6.9962708  0.488126E-07  0.122E-02    0.99       2.7  T
   6     -6.9962718 -0.106445E-05  0.394E-03    0.99       8.5  T
   7     -6.9962719 -0.700721E-07  0.228E-03    0.99      14.6  T
   8     -6.9962719 -0.325603E-07  0.889E-04    0.99      37.5  T
   9     -6.9962719 -0.595426E-08  0.146E-04    0.99     228.6  T
     SCC iter.                  ...        0 min,  0.001 sec
     gradient                   ...        0 min,  0.000 sec
 * total energy  :    -6.8500917 Eh     change       -0.7799803E-05 Eh
   gradient norm :     0.0012622 Eh/α   predicted    -0.5737471E-05 ( -26.44%)
   displ. norm   :     0.1715272 α      lambda       -0.1300953E-04
   maximum displ.:     0.0830856 α      in ANC's #6, #7, #4, ...

........................................................................
.............................. CYCLE  114 ..............................
........................................................................
   1     -6.9968437 -0.699684E+01  0.252E-01    1.00       0.0  T
   2     -6.9968424  0.135052E-05  0.162E-01    1.00       1.0  T
   3     -6.9965611  0.281328E-03  0.162E-01    0.98       1.0  T
   4     -6.9968414 -0.280311E-03  0.269E-02    1.00       1.2  T
   5     -6.9968413  0.110040E-06  0.231E-02    1.00       1.4  T
   6     -6.9968445 -0.320413E-05  0.919E-03    1.00       3.6  T
   7     -6.9968448 -0.290018E-06  0.661E-03    1.00       5.0  T
   8     -6.9968450 -0.251298E-06  0.297E-03    1.00      11.2  T
   9     -6.9968451 -0.689123E-07  0.353E-04    1.00      94.5  T
  10     -6.9968451 -0.761944E-09  0.555E-05    1.00     600.7  T
     SCC iter.                  ...        0 min,  0.002 sec
     gradient                   ...        0 min,  0.000 sec
 * total energy  :    -6.8501012 Eh     change       -0.9566494E-05 Eh
   gradient norm :     0.0019138 Eh/α   predicted    -0.6589904E-05 ( -31.11%)
   displ. norm   :     0.2307214 α      lambda       -0.1199035E-04
   maximum displ.:     0.1191432 α      in ANC's #6, #7, #4, ...

........................................................................
.............................. CYCLE  115 ..............................
........................................................................
   1     -6.9959604 -0.699596E+01  0.379E-01    1.00       0.0  T
   2     -6.9959531  0.730888E-05  0.245E-01    1.00       1.0  T
   3     -6.9947961  0.115692E-02  0.322E-01    0.97       1.0  T
   4     -6.9959629 -0.116672E-02  0.231E-02    1.00       1.4  T
   5     -6.9959632 -0.374661E-06  0.435E-03    1.00       7.7  T
   6     -6.9959632  0.482645E-08  0.260E-03    1.00      12.8  T
   7     -6.9959632 -0.411556E-08  0.236E-03    1.00      14.1  T
   8     -6.9959632  0.212093E-08  0.219E-03    1.00      15.2  T
   9     -6.9959633 -0.343311E-07  0.656E-04    1.00      50.8  T
  10     -6.9959633 -0.323686E-08  0.383E-05    1.00     871.2  T
     SCC iter.                  ...        0 min,  0.001 sec
     gradient                   ...        0 min,  0.000 sec
 * total energy  :    -6.8501112 Eh     change       -0.9989758E-05 Eh
   gradient norm :     0.0014588 Eh/α   predicted    -0.6136655E-05 ( -38.57%)
   displ. norm   :     0.0357771 α      lambda       -0.5354899E-05
   maximum displ.:     0.0258696 α      in ANC's #6, #1, #12, ...

........................................................................
.............................. CYCLE  116 ..............................
........................................................................
   1     -6.9966347 -0.699663E+01  0.654E-02    1.00       0.0  T
   2     -6.9966277  0.698275E-05  0.489E-02    1.00       1.0  T
   3     -6.9965223  0.105372E-03  0.104E-01    0.99       1.0  T
   4     -6.9966329 -0.110527E-03  0.180E-02    1.00       1.9  T
   5     -6.9966356 -0.271618E-05  0.409E-03    1.00       8.2  T
   6     -6.9966355  0.930580E-07  0.372E-03    1.00       9.0  T
   7     -6.9966356 -0.100434E-06  0.129E-03    1.00      25.8  T
   8     -6.9966356 -0.902756E-08  0.644E-04    1.00      51.7  T
   9     -6.9966356 -0.261187E-08  0.263E-04    1.00     126.9  T
     SCC iter.                  ...        0 min,  0.001 sec
     gradient                   ...        0 min,  0.000 sec
 * total energy  :    -6.8501153 Eh     change       -0.4043574E-05 Eh
   gradient norm :     0.0010000 Eh/α   predicted    -0.2677784E-05 ( -33.78%)
   displ. norm   :     0.0437349 α      lambda       -0.4410310E-05
   maximum displ.:     0.0330754 α      in ANC's #6, #4, #12, ...

........................................................................
.............................. CYCLE  117 ..............................
........................................................................
   1     -6.9966201 -0.699662E+01  0.714E-02    1.00       0.0  T
   2     -6.9966123  0.777136E-05  0.504E-02    1.00       1.0  T
   3     -6.9964712  0.141141E-03  0.119E-01    0.99       1.0  T
   4     -6.9966200 -0.148823E-03  0.116E-02    1.00       2.9  T
   5     -6.9966209 -0.948292E-06  0.471E-03    1.00       7.1  T
   6     -6.9966209  0.340943E-08  0.245E-03    1.00      13.6  T
   7     -6.9966210 -0.433900E-07  0.394E-04    1.00      84.6  T
   8     -6.9966210  0.219565E-09  0.270E-04    1.00     123.4  T
     SCC iter.                  ...        0 min,  0.001 sec
     gradient                   ...        0 min,  0.001 sec
 * total energy  :    -6.8501193 Eh     change       -0.4008523E-05 Eh
   gradient norm :     0.0007008 Eh/α   predicted    -0.2208726E-05 ( -44.90%)
   displ. norm   :     0.0428864 α      lambda       -0.3905314E-05
   maximum displ.:     0.0224703 α      in ANC's #11, #6, #12, ...

   *** GEOMETRY OPTIMIZATION CONVERGED AFTER 117 ITERATIONS ***

------------------------------------------------------------------------
 total energy gain   :        -0.4678246 Eh     -293.5644 kcal/mol
 total RMSD          :         3.1677592 a0        1.6763 Å
 total power (kW/mol):       -10.4980626 (step)-4364.7705 (real)
------------------------------------------------------------------------

 ANCopt (total)                0 d,  0 h,  0 min,  0.281 sec
 optimizer setup                ...        0 min,  0.000 sec (  0.009%)
 model hessian                  ...        0 min,  0.001 sec (  0.316%)
 ANC generation                 ...        0 min,  0.000 sec (  0.091%)
 coordinate transformation      ...        0 min,  0.000 sec (  0.105%)
 single point calculation       ...        0 min,  0.270 sec ( 96.122%)
 optimization log               ...        0 min,  0.003 sec (  1.078%)
 hessian update                 ...        0 min,  0.003 sec (  0.954%)
 rational function              ...        0 min,  0.002 sec (  0.636%)

================
 final structure:
================
9
 xtb: 6.5.1 (conda-forge)
Be           1.43026264799280        0.85495784096832        2.02523449715601
B            2.99516907767381        0.28816273629118        2.18808762804487
C            4.32799991944860        0.06133169280311        1.77159633922561
H            5.09934880484672       -0.41093559440072        2.37350839323129
H            4.72516934504439        0.32794677523968        0.79452339389305
H            4.80830094398267        2.30246642878328        2.82031122499685
H            5.22172406832256        2.91983337343866        3.08902391938321
H            2.85745161546974       -0.85897066090413        4.38641048457248
H            2.93157357721422       -1.25512459221139        5.07580411950025

 Bond Distances (Angstroems)
 ---------------------------
Be1-B2=1.6723        B2-Be1=1.6723        B2-C3=1.4147         C3-B2=1.4147         C3-H4=1.0864         C3-H5=1.0879         
H4-C3=1.0864         H5-C3=1.0879         H6-H7=0.7901         H7-H6=0.7901         H8-H9=0.7986         H9-H8=0.7986         
 H  H  Rav=0.7943 sigma=0.0042  Rmin=0.7901  Rmax=0.7986     2
 B  Be Rav=1.6723 sigma=0.0000  Rmin=1.6723  Rmax=1.6723     1
 C  H  Rav=1.0872 sigma=0.0007  Rmin=1.0864  Rmax=1.0879     2
 C  B  Rav=1.4147 sigma=0.0000  Rmin=1.4147  Rmax=1.4147     1

 selected bond angles (degree)
 --------------------
C3-B2-Be1=155.13               H4-C3-B2=125.13                H5-C3-B2=124.69                H5-C3-H4=110.18                

 selected dihedral angles (degree)
 ---------------------------------
H4-C3-B2-Be1=177.32           H5-C3-B2-Be1=356.70           

 CMA Distance (Angstroems)
 ---------------------------
R(CMA):  2.4719
           -------------------------------------------------
          |                Final Singlepoint                |
           -------------------------------------------------

          ...................................................
          :                      SETUP                      :
          :.................................................:
          :  # basis functions                  18          :
          :  # atomic orbitals                  18          :
          :  # shells                           12          :
          :  # electrons                        15          :
          :  max. iterations                   250          :
          :  Hamiltonian                  GFN2-xTB          :
          :  restarted?                      false          :
          :  GBSA solvation                  false          :
          :  PC potential                    false          :
          :  electronic temp.          300.0000000     K    :
          :  accuracy                    1.0000000          :
          :  -> integral cutoff          0.2500000E+02      :
          :  -> integral neglect         0.1000000E-07      :
          :  -> SCF convergence          0.1000000E-05 Eh   :
          :  -> wf. convergence          0.1000000E-03 e    :
          :  Broyden damping             0.4000000          :
          ...................................................

 iter      E             dE          RMSdq      gap      omega  full diag
   1     -6.9966210 -0.699662E+01  0.139E-04    1.00       0.0  T
   2     -6.9966210  0.142680E-08  0.348E-04    1.00      95.7  T
   3     -6.9966210 -0.143715E-08  0.120E-04    1.00     276.9  T

   *** convergence criteria satisfied after 3 iterations ***

         #    Occupation            Energy/Eh            Energy/eV
      -------------------------------------------------------------
         1        2.0000           -0.4911264             -13.3642
         2        2.0000           -0.4458417             -12.1320
         3        2.0000           -0.4368397             -11.8870
         4        2.0000           -0.3965427             -10.7905
         5        2.0000           -0.3917071             -10.6589
         6        2.0000           -0.3306494              -8.9974
         7        2.0000           -0.2911932              -7.9238
         8        1.0000           -0.2234100              -6.0793 (HOMO)
         9                         -0.1865803              -5.0771 (LUMO)
        10                         -0.1728420              -4.7033
        11                         -0.0781390              -2.1263
        12                         -0.0201106              -0.5472
        13                          0.1441686               3.9230
       ...                                ...                  ...
        18                          0.8128626              22.1191
      -------------------------------------------------------------
                  HL-Gap            0.0368297 Eh            1.0022 eV
             Fermi-level           -0.2311484 Eh           -6.2899 eV

 SCC (total)                   0 d,  0 h,  0 min,  0.001 sec
 SCC setup                      ...        0 min,  0.000 sec (  3.221%)
 Dispersion                     ...        0 min,  0.000 sec (  8.308%)
 classical contributions        ...        0 min,  0.000 sec (  3.014%)
 integral evaluation            ...        0 min,  0.000 sec (  7.431%)
 iterations                     ...        0 min,  0.001 sec ( 35.497%)
 molecular gradient             ...        0 min,  0.001 sec ( 38.383%)
 printout                       ...        0 min,  0.000 sec (  2.918%)

         :::::::::::::::::::::::::::::::::::::::::::::::::::::
         ::                     SUMMARY                     ::
         :::::::::::::::::::::::::::::::::::::::::::::::::::::
         :: total energy              -6.850119291087 Eh    ::
         :: gradient norm              0.000701304722 Eh/a0 ::
         :: HOMO-LUMO gap              1.002188409200 eV    ::
         ::.................................................::
         :: SCC energy                -6.996620981049 Eh    ::
         :: -> isotropic ES           -0.004256681784 Eh    ::
         :: -> anisotropic ES          0.020043714387 Eh    ::
         :: -> anisotropic XC          0.004700760794 Eh    ::
         :: -> dispersion             -0.003507071432 Eh    ::
         :: repulsion energy           0.146493898099 Eh    ::
         :: add. restraining           0.000000000000 Eh    ::
         :: total charge              -0.000000000000 e     ::
         :::::::::::::::::::::::::::::::::::::::::::::::::::::

           -------------------------------------------------
          |                Property Printout                |
           -------------------------------------------------

    * Orbital Energies and Occupations

         #    Occupation            Energy/Eh            Energy/eV
      -------------------------------------------------------------
         1        2.0000           -0.4911264             -13.3642
         2        2.0000           -0.4458417             -12.1320
         3        2.0000           -0.4368397             -11.8870
         4        2.0000           -0.3965427             -10.7905
         5        2.0000           -0.3917071             -10.6589
         6        2.0000           -0.3306494              -8.9974
         7        2.0000           -0.2911932              -7.9238
         8        1.0000           -0.2234100              -6.0793 (HOMO)
         9                         -0.1865803              -5.0771 (LUMO)
        10                         -0.1728420              -4.7033
        11                         -0.0781390              -2.1263
        12                         -0.0201106              -0.5472
        13                          0.1441686               3.9230
        14                          0.1495339               4.0690
        15                          0.2527541               6.8778
        16                          0.3398691               9.2483
        17                          0.6804747              18.5167
        18                          0.8128626              22.1191
      -------------------------------------------------------------
                  HL-Gap            0.0368297 Eh            1.0022 eV
             Fermi-level           -0.2311484 Eh           -6.2899 eV

     #   Z          covCN         q      C6AA      α(0)
     1   4 Be       0.911     0.322    69.190    24.948
     2   5 B        1.818    -0.030    45.712    14.243
     3   6 C        2.757    -0.213    33.630     9.496
     4   1 H        0.925    -0.012     3.281     2.833
     5   1 H        0.925    -0.026     3.545     2.945
     6   1 H        0.769     0.015     2.899     2.682
     7   1 H        0.769    -0.035     3.849     3.090
     8   1 H        0.738     0.008     3.054     2.762
     9   1 H        0.738    -0.030     3.783     3.074

 Mol. C6AA /au·bohr⁶  :        951.212369
 Mol. C8AA /au·bohr⁸  :      26140.396738
 Mol. α(0) /au        :         66.072975


Wiberg/Mayer (AO) data.
largest (>0.10) Wiberg bond orders for each atom

 ---------------------------------------------------------------------------
Note: The following floating-point exceptions are signalling: IEEE_UNDERFLOW_FLAG
normal termination of xtb
     #   Z sym  total        # sym  WBO       # sym  WBO       # sym  WBO
 ---------------------------------------------------------------------------
     1   4 Be   1.434 --     2 B    1.253     3 C    0.146
     2   5 B    3.196 --     3 C    1.860     1 Be   1.253
     3   6 C    3.937 --     2 B    1.860     4 H    0.955     5 H    0.951
                             1 Be   0.146
     4   1 H    0.987 --     3 C    0.955
     5   1 H    0.977 --     3 C    0.951
     6   1 H    1.000 --     7 H    0.979
     7   1 H    0.999 --     6 H    0.979
     8   1 H    0.998 --     9 H    0.963
     9   1 H    0.977 --     8 H    0.963
 ---------------------------------------------------------------------------

Topologies differ in total number of bonds
Writing topology from bond orders to xtbtopo.mol

molecular dipole:
                 x           y           z       tot (Debye)
 q only:       -1.717       0.402      -0.039
   full:       -2.284       0.545       0.136       5.979
molecular quadrupole (traceless):
                xx          xy          yy          xz          yz          zz
 q only:      -18.107       0.094      10.036      -9.868       2.467       8.072
  q+dip:      -17.788      -2.340       8.955     -13.148       3.341       8.833
   full:      -19.819      -0.975      10.164     -13.837       4.090       9.655

           -------------------------------------------------
          |                Geometry Summary                 |
           -------------------------------------------------

      molecular mass/u    :       37.8815915
   center of mass at/Å    :        3.2496079       0.3855765       2.1612673
  moments of inertia/u·Å² :        0.3653742E+02   0.7223513E+02   0.7922131E+02
rotational constants/cm⁻¹ :        0.4613800E+00   0.2333717E+00   0.2127916E+00

 * 5 selected distances

     #   Z          #   Z                                           value/Å
     1   4 Be       2   5 B                                       1.6723368 (max)
     2   5 B        3   6 C                                       1.4146928
     3   6 C        4   1 H                                       1.0864225
     3   6 C        5   1 H                                       1.0878874
     6   1 H        7   1 H                                       0.7901058 (min)

 * 4 distinct bonds (by element types)

   Z      Z             #   av. dist./Å        max./Å        min./Å
   1 H    1 H           1     0.7901058     0.7901058     0.7901058
   4 Be   5 B           1     1.6723368     1.6723368     1.6723368
   1 H    6 C           2     1.0871549     1.0878874     1.0864225
   5 B    6 C           1     1.4146928     1.4146928     1.4146928


optimized geometry written to: xtbopt.xyz


           -------------------------------------------------
          | TOTAL ENERGY               -6.850119291087 Eh   |
          | GRADIENT NORM               0.000701304722 Eh/α |
          | HOMO-LUMO GAP               1.002188409200 eV   |
           -------------------------------------------------
########################################################################
[WARNING] Runtime exception occurred
-2- restart_readRestart: Dimension missmatch in restart file.
-1- restart_readRestart: Number of electron missmatch in restart file.
########################################################################

------------------------------------------------------------------------
 * finished run on 2025/06/07 at 03:27:51.249     
------------------------------------------------------------------------
 total:
 * wall-time:     0 d,  0 h,  0 min,  0.307 sec
 *  cpu-time:     0 d,  0 h,  0 min,  3.983 sec
 * ratio c/w:    12.974 speedup
 SCF:
 * wall-time:     0 d,  0 h,  0 min,  0.020 sec
 *  cpu-time:     0 d,  0 h,  0 min,  0.246 sec
 * ratio c/w:    12.498 speedup
 ANC optimizer:
 * wall-time:     0 d,  0 h,  0 min,  0.283 sec
 *  cpu-time:     0 d,  0 h,  0 min,  3.699 sec
 * ratio c/w:    13.048 speedup

