      -----------------------------------------------------------      
     |                   =====================                   |     
     |                           x T B                           |     
     |                   =====================                   |     
     |                         S. Grimme                         |     
     |          Mulliken Center for Theoretical Chemistry        |     
     |                    University of Bonn                     |     
      -----------------------------------------------------------      

   * xtb version 6.5.1 (conda-forge) compiled by 'runner@Mac-1657629245115.local' on 2022-07-12

   xtb is free software: you can redistribute it and/or modify it under
   the terms of the GNU Lesser General Public License as published by
   the Free Software Foundation, either version 3 of the License, or
   (at your option) any later version.
   
   xtb is distributed in the hope that it will be useful,
   but WITHOUT ANY WARRANTY; without even the implied warranty of
   MERCHANTABILITY or FITNESS FOR A PARTICULAR PURPOSE.  See the
   GNU Lesser General Public License for more details.
   
   Cite this work as:
   * C. Bannwarth, E. Caldeweyher, S. Ehlert, A. Hansen, P. Pracht,
     J. Seibert, S. Spicher, S. Grimme, WIREs Comput. Mol. Sci., 2020, 11,
     e01493. DOI: 10.1002/wcms.1493
   
   for GFN2-xTB:
   * C. Bannwarth, S. Ehlert and S. Grimme., J. Chem. Theory Comput., 2019,
     15, 1652-1671. DOI: 10.1021/acs.jctc.8b01176
   for GFN1-xTB:
   * S. Grimme, C. Bannwarth, P. Shushkov, J. Chem. Theory Comput., 2017,
     13, 1989-2009. DOI: 10.1021/acs.jctc.7b00118
   for GFN0-xTB:
   * P. Pracht, E. Caldeweyher, S. Ehlert, S. Grimme, ChemRxiv, 2019, preprint.
     DOI: 10.26434/chemrxiv.8326202.v1
   for GFN-FF:
   * S. Spicher and S. Grimme, Angew. Chem. Int. Ed., 2020, 59, 15665-15673.
     DOI: 10.1002/anie.202004239
   
   for ALPB and GBSA implicit solvation:
   * S. Ehlert, M. Stahn, S. Spicher, S. Grimme, J. Chem. Theory Comput.,
     2021, 17, 4250-4261. DOI: 10.1021/acs.jctc.1c00471
   
   for DFT-D4:
   * E. Caldeweyher, C. Bannwarth and S. Grimme, J. Chem. Phys., 2017,
     147, 034112. DOI: 10.1063/1.4993215
   * E. Caldeweyher, S. Ehlert, A. Hansen, H. Neugebauer, S. Spicher,
     C. Bannwarth and S. Grimme, J. Chem. Phys., 2019, 150, 154122.
     DOI: 10.1063/1.5090222
   * E. Caldeweyher, J.-M. Mewes, S. Ehlert and S. Grimme, Phys. Chem. Chem. Phys.
     2020, 22, 8499-8512. DOI: 10.1039/D0CP00502A
   
   for sTDA-xTB:
   * S. Grimme and C. Bannwarth, J. Chem. Phys., 2016, 145, 054103.
     DOI: 10.1063/1.4959605
   
   in the mass-spec context:
   * V. Asgeirsson, C. Bauer and S. Grimme, Chem. Sci., 2017, 8, 4879.
     DOI: 10.1039/c7sc00601b
   * J. Koopman and S. Grimme, ACS Omega 2019, 4, 12, 15120-15133.
     DOI: 10.1021/acsomega.9b02011
   
   for metadynamics refer to:
   * S. Grimme, J. Chem. Theory Comput., 2019, 155, 2847-2862
     DOI: 10.1021/acs.jctc.9b00143
   
   for SPH calculations refer to:
   * S. Spicher and S. Grimme, J. Chem. Theory Comput., 2021, 17, 1701-1714
     DOI: 10.1021/acs.jctc.0c01306
   
   with help from (in alphabetical order)
   P. Atkinson, C. Bannwarth, F. Bohle, G. Brandenburg, E. Caldeweyher
   M. Checinski, S. Dohm, S. Ehlert, S. Ehrlich, I. Gerasimov, C. Hölzer
   A. Katbashev, J. Koopman, C. Lavigne, S. Lehtola, F. März, M. Müller,
   F. Musil, H. Neugebauer, J. Pisarek, C. Plett, P. Pracht, F. Pultar,
   J. Seibert, P. Shushkov, S. Spicher, M. Stahn, M. Steiner, T. Strunk,
   J. Stückrath, T. Rose, and J. Unsleber
   
 * started run on 2025/06/07 at 03:27:51.262     

           -------------------------------------------------
          |                Calculation Setup                |
           -------------------------------------------------

          program call               : xtb BBeH3.xyz --gfn 2 --opt
          coordinate file            : BBeH3.xyz
          omp threads                :                    16

   ID    Z sym.   atoms
    1    4 Be     1
    2    5 B      2
    3    1 H      3-5

molecular fragmentation (1/2 indicates fragments):
12222
# atoms in fragment 1/2:     1     4
 fragment masses (1/2) :        9.01       13.83
CMA distance (Bohr)    :   5.044
constraining FC (au)   :  0.0500

           -------------------------------------------------
          |                 G F N 2 - x T B                 |
           -------------------------------------------------

        Reference                      10.1021/acs.jctc.8b01176
      * Hamiltonian:
        H0-scaling (s, p, d)           1.850000    2.230000    2.230000
        zeta-weighting                 0.500000
      * Dispersion:
        s8                             2.700000
        a1                             0.520000
        a2                             5.000000
        s9                             5.000000
      * Repulsion:
        kExp                           1.500000    1.000000
        rExp                           1.000000
      * Coulomb:
        alpha                          2.000000
        third order                    shell-resolved
        anisotropic                    true
        a3                             3.000000
        a5                             4.000000
        cn-shift                       1.200000
        cn-exp                         4.000000
        max-rad                        5.000000


          ...................................................
          :                      SETUP                      :
          :.................................................:
          :  # basis functions                  11          :
          :  # atomic orbitals                  11          :
          :  # shells                            7          :
          :  # electrons                         8          :
          :  max. iterations                   250          :
          :  Hamiltonian                  GFN2-xTB          :
          :  restarted?                      false          :
          :  GBSA solvation                  false          :
          :  PC potential                    false          :
          :  electronic temp.          300.0000000     K    :
          :  accuracy                    1.0000000          :
          :  -> integral cutoff          0.2500000E+02      :
          :  -> integral neglect         0.1000000E-07      :
          :  -> SCF convergence          0.1000000E-05 Eh   :
          :  -> wf. convergence          0.1000000E-03 e    :
          :  Broyden damping             0.4000000          :
          ...................................................

 iter      E             dE          RMSdq      gap      omega  full diag
   1      7.8507194  0.785072E+01  0.230E+01    0.01       0.0  T
   2      0.6245000 -0.722622E+01  0.270E+01    7.02       1.0  T
   3     -0.6248152 -0.124932E+01  0.178E+01    4.53       1.0  T
   4     -0.8758924 -0.251077E+00  0.129E+01    4.47       1.0  T
   5     -2.1349478 -0.125906E+01  0.276E+01    1.01       1.0  T
   6     -2.0698472  0.651006E-01  0.123E+01    2.00       1.0  T
   7     22.6989671  0.247688E+02  0.309E+01    9.37       1.0  T
   8      9.0372393 -0.136617E+02  0.335E+01    0.44       1.0  T
   9     22.4385343  0.134013E+02  0.304E+01    5.80       1.0  T
  10     -0.7693238 -0.232079E+02  0.118E+01    4.44       1.0  T
  11     -2.0431709 -0.127385E+01  0.125E+01    1.61       1.0  T
  12     -2.5676426 -0.524472E+00  0.145E+01    0.57       1.0  T
  13     -2.6204559 -0.528132E-01  0.146E+01    0.51       1.0  T
  14     -2.5467689  0.736870E-01  0.146E+01    0.59       1.0  T
  15     -2.1102002  0.436569E+00  0.109E+01    1.54       1.0  T
  16     -2.7896351 -0.679435E+00  0.885E+00    0.36       1.0  T
  17     -2.7392577  0.503774E-01  0.891E+00    0.40       1.0  T
  18     -2.3537640  0.385494E+00  0.988E+00    1.01       1.0  T
  19     -2.9205457 -0.566782E+00  0.125E+01    0.29       1.0  T
  20     -2.8503952  0.701505E-01  0.153E+01    0.33       1.0  T
  21     -2.7581628  0.922325E-01  0.163E+01    0.40       1.0  T
  22     -2.9168855 -0.158723E+00  0.115E+01    0.29       1.0  T
  23     -2.7803442  0.136541E+00  0.108E+01    0.36       1.0  T
  24     -2.7905991 -0.102550E-01  0.109E+01    0.35       1.0  T
  25     -2.7536893  0.369098E-01  0.109E+01    0.39       1.0  T
  26     -2.7518957  0.179362E-02  0.108E+01    0.38       1.0  T
  27     -2.7291102  0.227855E-01  0.100E+01    0.36       1.0  T
  28     -2.7781032 -0.489930E-01  0.978E+00    0.30       1.0  T
  29     -2.7751790  0.292418E-02  0.976E+00    0.30       1.0  T
  30     -2.6684811  0.106698E+00  0.996E+00    0.41       1.0  T
  31     -2.6443318  0.241493E-01  0.102E+01    0.44       1.0  T
  32     -2.5707024  0.736295E-01  0.105E+01    0.54       1.0  T
  33     -2.5404926  0.302097E-01  0.105E+01    0.59       1.0  T
  34     -2.5087146  0.317780E-01  0.105E+01    0.64       1.0  T
  35     -2.4829179  0.257967E-01  0.104E+01    0.68       1.0  T
  36     -2.4519618  0.309562E-01  0.104E+01    0.74       1.0  T
  37     -2.4000596  0.519021E-01  0.103E+01    0.86       1.0  T
  38     -2.4143251 -0.142655E-01  0.103E+01    0.83       1.0  T
  39     -2.3637647  0.505604E-01  0.102E+01    0.93       1.0  T
  40     -2.4243206 -0.605559E-01  0.102E+01    0.77       1.0  T
  41     -2.4324004 -0.807980E-02  0.102E+01    0.75       1.0  T
  42     -2.4127964  0.196040E-01  0.995E+00    0.81       1.0  T
  43     -2.4612348 -0.484384E-01  0.948E+00    0.77       1.0  T
  44     -2.5956269 -0.134392E+00  0.894E+00    0.64       1.0  T
  45     -2.7171834 -0.121557E+00  0.849E+00    0.55       1.0  T
  46     -2.7205046 -0.332120E-02  0.864E+00    0.54       1.0  T
  47     -2.5928774  0.127627E+00  0.106E+01    0.59       1.0  T
  48     -2.5990598 -0.618243E-02  0.107E+01    0.58       1.0  T
  49     -2.6139046 -0.148447E-01  0.107E+01    0.56       1.0  T
  50     -2.5679877  0.459169E-01  0.116E+01    0.59       1.0  T
  51     -2.6659671 -0.979794E-01  0.107E+01    0.51       1.0  T
  52     -2.5392102  0.126757E+00  0.118E+01    0.63       1.0  T
  53     -2.6037152 -0.645050E-01  0.110E+01    0.58       1.0  T
  54     -2.5933240  0.103913E-01  0.107E+01    0.63       1.0  T
  55     -2.8856266 -0.292303E+00  0.546E+00    0.52       1.0  T
  56     -2.7662328  0.119394E+00  0.763E+00    0.57       1.0  T
  57     -2.8528048 -0.865720E-01  0.593E+00    0.55       1.0  T
  58     -2.8145288  0.382760E-01  0.666E+00    0.57       1.0  T
  59     -2.8041878  0.103409E-01  0.668E+00    0.59       1.0  T
  60     -2.8436235 -0.394357E-01  0.505E+00    0.59       1.0  T
  61     -2.8829012 -0.392777E-01  0.367E+00    0.58       1.0  T
  62     -2.8882871 -0.538590E-02  0.319E+00    0.58       1.0  T
  63     -2.9114983 -0.232112E-01  0.238E+00    0.57       1.0  T
  64     -2.9141684 -0.267010E-02  0.218E+00    0.56       1.0  T
  65     -2.9545690 -0.404006E-01  0.107E+00    0.53       1.0  T
  66     -2.9589466 -0.437758E-02  0.119E+00    0.51       1.0  T
  67     -2.9625626 -0.361601E-02  0.141E+00    0.50       1.0  T
  68     -2.9623668  0.195773E-03  0.137E+00    0.51       1.0  T
  69     -2.9623561  0.107328E-04  0.137E+00    0.50       1.0  T
  70     -2.9586462  0.370986E-02  0.128E+00    0.50       1.0  T
  71     -2.9476279  0.110184E-01  0.157E+00    0.51       1.0  T
  72     -2.9439931  0.363475E-02  0.158E+00    0.53       1.0  T
  73     -2.9468344 -0.284127E-02  0.140E+00    0.54       1.0  T
  74     -2.9513645 -0.453009E-02  0.120E+00    0.54       1.0  T
  75     -2.9597593 -0.839480E-02  0.698E-01    0.55       1.0  T
  76     -2.9612702 -0.151093E-02  0.607E-01    0.54       1.0  T
  77     -2.9628779 -0.160769E-02  0.470E-01    0.55       1.0  T
  78     -2.9643918 -0.151388E-02  0.211E-01    0.55       1.0  T
  79     -2.9643878  0.391925E-05  0.135E-01    0.55       1.0  T
  80     -2.9643524  0.354453E-04  0.158E-01    0.55       1.0  T
  81     -2.9643481  0.432202E-05  0.137E-01    0.56       1.0  T
  82     -2.9643848 -0.367120E-04  0.641E-02    0.56       1.0  T
  83     -2.9643936 -0.881784E-05  0.160E-02    0.56       2.8  T
  84     -2.9643793  0.142845E-04  0.512E-02    0.56       1.0  T
  85     -2.9643789  0.442864E-06  0.520E-02    0.56       1.0  T
  86     -2.9643886 -0.975047E-05  0.336E-02    0.56       1.3  T
  87     -2.9643943 -0.567633E-05  0.112E-02    0.56       4.0  T
  88     -2.9643953 -0.100140E-05  0.113E-02    0.56       4.0  T
  89     -2.9643952  0.105530E-06  0.918E-03    0.56       4.9  T
  90     -2.9643953 -0.644491E-07  0.506E-03    0.56       8.8  T
  91     -2.9643954 -0.894420E-07  0.163E-03    0.56      27.4  T
  92     -2.9643954 -0.126792E-07  0.815E-04    0.56      54.8  T
  93     -2.9643954 -0.266329E-08  0.132E-04    0.56     339.5  T

   *** convergence criteria satisfied after 93 iterations ***

         #    Occupation            Energy/Eh            Energy/eV
      -------------------------------------------------------------
         1        2.0000           -0.5326292             -14.4936
         2        2.0000           -0.2678325              -7.2881
         3        2.0000           -0.2164673              -5.8904
         4        2.0000           -0.1761527              -4.7934 (HOMO)
         5        0.0000           -0.1556983              -4.2368 (LUMO)
         6                         -0.0664549              -1.8083
         7                         -0.0551426              -1.5005
         8                          0.0191452               0.5210
         9                          0.0213413               0.5807
       ...                                ...                  ...
        11                          0.2377284               6.4689
      -------------------------------------------------------------
                  HL-Gap            0.0204544 Eh            0.5566 eV
             Fermi-level           -0.1659255 Eh           -4.5151 eV

 SCC (total)                   0 d,  0 h,  0 min,  0.016 sec
 SCC setup                      ...        0 min,  0.000 sec (  0.480%)
 Dispersion                     ...        0 min,  0.000 sec (  0.504%)
 classical contributions        ...        0 min,  0.000 sec (  1.098%)
 integral evaluation            ...        0 min,  0.000 sec (  0.844%)
 iterations                     ...        0 min,  0.015 sec ( 94.883%)
 molecular gradient             ...        0 min,  0.000 sec (  1.962%)
 printout                       ...        0 min,  0.000 sec (  0.154%)

         :::::::::::::::::::::::::::::::::::::::::::::::::::::
         ::                     SUMMARY                     ::
         :::::::::::::::::::::::::::::::::::::::::::::::::::::
         :: total energy              -2.926386115048 Eh    ::
         :: gradient norm              0.323703940480 Eh/a0 ::
         :: HOMO-LUMO gap              0.556593570278 eV    ::
         ::.................................................::
         :: SCC energy                -2.964395372485 Eh    ::
         :: -> isotropic ES            0.012256352860 Eh    ::
         :: -> anisotropic ES         -0.001059947499 Eh    ::
         :: -> anisotropic XC         -0.014002705533 Eh    ::
         :: -> dispersion             -0.002396626295 Eh    ::
         :: repulsion energy           0.038009327028 Eh    ::
         :: add. restraining           0.000000000000 Eh    ::
         :: total charge              -0.000000000000 e     ::
         :::::::::::::::::::::::::::::::::::::::::::::::::::::

      ----------------------------------------------------------- 
     |                   =====================                   |
     |                        A N C O P T                        |
     |                   =====================                   |
     |               Approximate Normal Coordinate               |
     |                Rational Function Optimizer                |
      ----------------------------------------------------------- 

          ...................................................
          :                      SETUP                      :
          :.................................................:
          :   optimization level            normal          :
          :   max. optcycles                   200          :
          :   ANC micro-cycles                  20          :
          :   degrees of freedom                 9          :
          :.................................................:
          :   RF solver                   davidson          :
          :   write xtbopt.log                true          :
          :   linear?                        false          :
          :   energy convergence         0.5000000E-05 Eh   :
          :   grad. convergence          0.1000000E-02 Eh/α :
          :   maximium RF displ.         1.0000000          :
          :   Hlow (freq-cutoff)         0.1000000E-01      :
          :   Hmax (freq-cutoff)         5.0000000          :
          :   S6 in model hess.         20.0000000          :
          ...................................................

generating ANC from model Hessian ...
Using Lindh-Hessian (1995)
 Shifting diagonal of input Hessian by    8.8728954815977829E-003
 Lowest  eigenvalues of input Hessian
    0.000000    0.000000    0.000000    0.000000    0.000000    0.000000
    0.010000    0.010193    0.029449    0.051149    0.115788    0.134343
    0.250776    0.280173    0.372636
 Highest eigenvalues
    0.051149    0.115788    0.134343    0.250776    0.280173    0.372636


........................................................................
.............................. CYCLE    1 ..............................
........................................................................
   1     -2.9643954 -0.296440E+01  0.525E-05    0.56       0.0  T
   2     -2.9643954  0.528448E-09  0.364E-04    0.56     122.8  T
   3     -2.9643954 -0.337492E-09  0.225E-04    0.56     198.7  T
     SCC iter.                  ...        0 min,  0.000 sec
     gradient                   ...        0 min,  0.000 sec
 * total energy  :    -2.9263861 Eh     change        0.1219629E-09 Eh
   gradient norm :     0.3227064 Eh/α   predicted     0.0000000E+00 (-100.00%)
   displ. norm   :     0.8534582 α      lambda       -0.2661703E+00
   maximum displ.:     0.7072118 α      in ANC's #4, #8, #3, ...

........................................................................
.............................. CYCLE    2 ..............................
........................................................................
   1     -3.0241475 -0.302415E+01  0.629E+00    0.89       0.0  T
   2     -2.1474532  0.876694E+00  0.167E+01    1.38       1.0  T
   3     -2.6744890 -0.527036E+00  0.824E+00    1.13       1.0  T
   4     -2.6149158  0.595732E-01  0.115E+01    1.11       1.0  T
   5     -2.6739216 -0.590058E-01  0.103E+01    1.05       1.0  T
   6     -3.0990911 -0.425169E+00  0.183E+00    0.65       1.0  T
   7     -3.0885004  0.105907E-01  0.254E+00    0.66       1.0  T
   8     -3.0982874 -0.978709E-02  0.137E+00    0.67       1.0  T
   9     -3.0996300 -0.134255E-02  0.121E+00    0.68       1.0  T
  10     -3.0996406 -0.106328E-04  0.102E+00    0.69       1.0  T
  11     -3.0997119 -0.713184E-04  0.489E-01    0.72       1.0  T
  12     -3.0997213 -0.930536E-05  0.284E-01    0.73       1.0  T
  13     -3.0996978  0.234721E-04  0.125E-01    0.74       1.0  T
  14     -3.0997251 -0.273482E-04  0.977E-03    0.74       4.6  T
  15     -3.0997249  0.188083E-06  0.140E-02    0.74       3.2  T
  16     -3.0997251 -0.186300E-06  0.501E-03    0.74       8.9  T
  17     -3.0997247  0.400074E-06  0.124E-02    0.74       3.6  T
  18     -3.0997250 -0.291298E-06  0.621E-03    0.74       7.2  T
  19     -3.0997251 -0.796638E-07  0.385E-03    0.74      11.6  T
  20     -3.0997251 -0.350703E-07  0.141E-03    0.74      31.8  T
  21     -3.0997251 -0.557071E-08  0.339E-04    0.74     132.0  T
  22     -3.0997251 -0.345028E-09  0.452E-05    0.74     988.5  T
     SCC iter.                  ...        0 min,  0.002 sec
     gradient                   ...        0 min,  0.000 sec
 * total energy  :    -3.0869245 Eh     change       -0.1605384E+00 Eh
   gradient norm :     0.1133149 Eh/α   predicted    -0.2300231E+00 (  43.28%)
   displ. norm   :     0.6350244 α      lambda       -0.6118993E-01
   maximum displ.:     0.5236083 α      in ANC's #3, #8, #4, ...

........................................................................
.............................. CYCLE    3 ..............................
........................................................................
   1     -3.0913323 -0.309133E+01  0.518E+00    1.05       0.0  T
   2     -1.4291481  0.166218E+01  0.193E+01    1.12       1.0  T
   3     -3.1045127 -0.167536E+01  0.389E+00    1.00       1.0  T
   4     -3.1339723 -0.294596E-01  0.315E+00    0.86       1.0  T
   5     -3.1354707 -0.149837E-02  0.307E+00    0.86       1.0  T
   6     -3.1488688 -0.133981E-01  0.150E+00    0.93       1.0  T
   7     -3.1501156 -0.124684E-02  0.189E+00    0.88       1.0  T
   8     -3.1518069 -0.169124E-02  0.156E+00    0.89       1.0  T
   9     -3.1552458 -0.343888E-02  0.743E-01    0.92       1.0  T
  10     -3.1559139 -0.668136E-03  0.326E-01    0.93       1.0  T
  11     -3.1558350  0.789412E-04  0.314E-01    0.93       1.0  T
  12     -3.1559035 -0.685509E-04  0.199E-01    0.93       1.0  T
  13     -3.1559640 -0.604685E-04  0.585E-02    0.93       1.0  T
  14     -3.1559689 -0.491849E-05  0.180E-02    0.93       2.5  T
  15     -3.1559691 -0.236743E-06  0.770E-03    0.93       5.8  T
  16     -3.1559692 -0.116243E-06  0.242E-03    0.93      18.5  T
  17     -3.1559693 -0.141886E-07  0.367E-04    0.93     121.9  T
  18     -3.1559693  0.379830E-10  0.367E-04    0.93     121.9  T
     SCC iter.                  ...        0 min,  0.002 sec
     gradient                   ...        0 min,  0.000 sec
 * total energy  :    -3.1447270 Eh     change       -0.5780249E-01 Eh
   gradient norm :     0.1015491 Eh/α   predicted    -0.4293256E-01 ( -25.73%)
   displ. norm   :     0.9304376 α      lambda       -0.9042257E-01
   maximum displ.:     0.6559786 α      in ANC's #3, #8, #4, ...

........................................................................
.............................. CYCLE    4 ..............................
........................................................................
   1     -3.1604705 -0.316047E+01  0.754E+00    1.82       0.0  T
   2     -0.6558611  0.250461E+01  0.199E+01    0.70       1.0  T
   3     -2.8034904 -0.214763E+01  0.916E+00    2.79       1.0  T
   4     -3.1279940 -0.324504E+00  0.592E+00    1.85       1.0  T
   5     -3.2236605 -0.956665E-01  0.303E+00    1.42       1.0  T
   6     -3.2287758 -0.511527E-02  0.288E+00    1.40       1.0  T
   7     -3.2325603 -0.378458E-02  0.272E+00    1.38       1.0  T
   8     -3.2347611 -0.220079E-02  0.251E+00    1.40       1.0  T
   9     -3.2418644 -0.710328E-02  0.144E+00    1.35       1.0  T
  10     -3.2451619 -0.329746E-02  0.112E+00    1.33       1.0  T
  11     -3.2461650 -0.100317E-02  0.955E-01    1.33       1.0  T
  12     -3.2494820 -0.331698E-02  0.118E-01    1.29       1.0  T
  13     -3.2494539  0.281315E-04  0.110E-01    1.30       1.0  T
  14     -3.2494999 -0.459666E-04  0.282E-02    1.29       1.6  T
  15     -3.2495000 -0.138670E-06  0.193E-02    1.29       2.3  T
  16     -3.2495000 -0.294741E-07  0.722E-03    1.30       6.2  T
  17     -3.2495000  0.204082E-08  0.678E-03    1.30       6.6  T
  18     -3.2495000 -0.697586E-08  0.141E-03    1.30      31.8  T
  19     -3.2495000 -0.699263E-11  0.649E-04    1.30      68.9  T
  20     -3.2495000 -0.732516E-10  0.354E-04    1.30     126.4  T
     SCC iter.                  ...        0 min,  0.002 sec
     gradient                   ...        0 min,  0.000 sec
 * total energy  :    -3.2286600 Eh     change       -0.8393293E-01 Eh
   gradient norm :     0.0956695 Eh/α   predicted    -0.8435133E-01 (   0.50%)
   displ. norm   :     0.9116717 α      lambda       -0.8073311E-01
   maximum displ.:     0.6819512 α      in ANC's #8, #3, #1, ...

........................................................................
.............................. CYCLE    5 ..............................
........................................................................
   1     -3.3023276 -0.330233E+01  0.572E+00    2.07       0.0  T
   2     -3.0441443  0.258183E+00  0.845E+00    1.40       1.0  T
   3     -3.1574152 -0.113271E+00  0.667E+00    2.34       1.0  T
   4     -3.3127793 -0.155364E+00  0.255E+00    1.80       1.0  T
   5     -3.2989148  0.138645E-01  0.280E+00    1.72       1.0  T
   6     -3.3147667 -0.158519E-01  0.148E+00    1.76       1.0  T
   7     -3.3225384 -0.777169E-02  0.528E-01    1.82       1.0  T
   8     -3.3209660  0.157236E-02  0.821E-01    1.85       1.0  T
   9     -3.3226241 -0.165811E-02  0.192E-01    1.82       1.0  T
  10     -3.3226259 -0.183444E-05  0.139E-01    1.82       1.0  T
  11     -3.3226316 -0.566336E-05  0.737E-02    1.82       1.0  T
  12     -3.3226314  0.212431E-06  0.474E-02    1.82       1.0  T
  13     -3.3226327 -0.134582E-05  0.223E-02    1.82       2.0  T
  14     -3.3226328 -0.100231E-06  0.133E-02    1.82       3.4  T
  15     -3.3226329 -0.112760E-07  0.657E-03    1.81       6.8  T
  16     -3.3226329 -0.377693E-07  0.274E-03    1.81      16.3  T
  17     -3.3226329 -0.793214E-08  0.111E-03    1.81      40.4  T
  18     -3.3226329 -0.454618E-09  0.187E-04    1.81     238.5  T
  19     -3.3226329  0.168208E-10  0.179E-04    1.81     249.2  T
     SCC iter.                  ...        0 min,  0.002 sec
     gradient                   ...        0 min,  0.000 sec
 * total energy  :    -3.2966508 Eh     change       -0.6799079E-01 Eh
   gradient norm :     0.0700013 Eh/α   predicted    -0.7391701E-01 (   8.72%)
   displ. norm   :     0.8048295 α      lambda       -0.4912847E-01
   maximum displ.:     0.5626964 α      in ANC's #8, #3, #2, ...

........................................................................
.............................. CYCLE    6 ..............................
........................................................................
   1     -3.3427151 -0.334272E+01  0.322E+00    2.01       0.0  T
   2     -3.3263501  0.163650E-01  0.296E+00    1.97       1.0  T
   3     -3.2950913  0.312589E-01  0.475E+00    1.94       1.0  T
   4     -3.3286230 -0.335318E-01  0.262E+00    1.95       1.0  T
   5     -3.3454580 -0.168350E-01  0.678E-01    1.94       1.0  T
   6     -3.3459791 -0.521066E-03  0.290E-01    1.95       1.0  T
   7     -3.3461134 -0.134302E-03  0.167E-01    1.95       1.0  T
   8     -3.3461208 -0.740767E-05  0.148E-01    1.94       1.0  T
   9     -3.3461528 -0.320583E-04  0.301E-02    1.94       1.5  T
  10     -3.3461506  0.228487E-05  0.389E-02    1.94       1.1  T
  11     -3.3461515 -0.982561E-06  0.261E-02    1.94       1.7  T
  12     -3.3461532 -0.168136E-05  0.729E-03    1.94       6.1  T
  13     -3.3461532 -0.289461E-07  0.613E-03    1.94       7.3  T
  14     -3.3461533 -0.828376E-07  0.139E-03    1.94      32.3  T
  15     -3.3461533 -0.323167E-08  0.161E-04    1.94     277.4  T
  16     -3.3461533 -0.661249E-12  0.932E-05    1.94     479.8  T
     SCC iter.                  ...        0 min,  0.002 sec
     gradient                   ...        0 min,  0.000 sec
 * total energy  :    -3.3073051 Eh     change       -0.1065433E-01 Eh
   gradient norm :     0.1216242 Eh/α   predicted    -0.4047571E-01 ( 279.90%)
   displ. norm   :     0.5444529 α      lambda       -0.4356188E-01
   maximum displ.:     0.3426282 α      in ANC's #2, #3, #1, ...

........................................................................
.............................. CYCLE    7 ..............................
........................................................................
   1     -3.3505616 -0.335056E+01  0.182E+00    2.14       0.0  T
   2     -3.3368645  0.136971E-01  0.265E+00    2.16       1.0  T
   3     -3.3504083 -0.135438E-01  0.122E+00    2.14       1.0  T
   4     -3.3512137 -0.805463E-03  0.869E-01    2.12       1.0  T
   5     -3.3487430  0.247077E-02  0.127E+00    2.11       1.0  T
   6     -3.3516752 -0.293228E-02  0.475E-01    2.09       1.0  T
   7     -3.3521294 -0.454120E-03  0.560E-02    2.08       1.0  T
   8     -3.3521326 -0.327486E-05  0.340E-02    2.08       1.3  T
   9     -3.3521331 -0.453949E-06  0.187E-02    2.08       2.4  T
  10     -3.3521331  0.111721E-07  0.183E-02    2.08       2.4  T
  11     -3.3521336 -0.501243E-06  0.622E-03    2.08       7.2  T
  12     -3.3521337 -0.864551E-07  0.131E-03    2.08      34.2  T
  13     -3.3521337  0.590015E-09  0.861E-04    2.08      51.9  T
  14     -3.3521337 -0.947746E-09  0.213E-04    2.08     210.2  T
     SCC iter.                  ...        0 min,  0.001 sec
     gradient                   ...        0 min,  0.000 sec
 * total energy  :    -3.3254429 Eh     change       -0.1813780E-01 Eh
   gradient norm :     0.0626806 Eh/α   predicted    -0.2823744E-01 (  55.68%)
   displ. norm   :     0.5860099 α      lambda       -0.2016991E-01
   maximum displ.:     0.3849336 α      in ANC's #1, #2, #8, ...

........................................................................
.............................. CYCLE    8 ..............................
........................................................................
   1     -3.3720396 -0.337204E+01  0.529E+00    2.10       0.0  T
   2     -3.3727093 -0.669752E-03  0.372E+00    2.14       1.0  T
   3     -3.3465757  0.261337E-01  0.307E+00    2.33       1.0  T
   4     -3.3705759 -0.240002E-01  0.136E+00    2.26       1.0  T
   5     -3.3711155 -0.539568E-03  0.114E+00    2.29       1.0  T
   6     -3.3723414 -0.122599E-02  0.727E-01    2.31       1.0  T
   7     -3.3736082 -0.126674E-02  0.101E-01    2.31       1.0  T
   8     -3.3735677  0.404502E-04  0.122E-01    2.31       1.0  T
   9     -3.3736105 -0.427889E-04  0.336E-02    2.31       1.3  T
  10     -3.3736130 -0.248106E-05  0.137E-02    2.31       3.3  T
  11     -3.3736134 -0.434051E-06  0.333E-03    2.31      13.4  T
  12     -3.3736135 -0.267176E-07  0.147E-03    2.31      30.4  T
  13     -3.3736135 -0.230875E-08  0.899E-04    2.31      49.7  T
  14     -3.3736135 -0.188892E-08  0.118E-04    2.31     378.2  T
     SCC iter.                  ...        0 min,  0.001 sec
     gradient                   ...        0 min,  0.000 sec
 * total energy  :    -3.3195679 Eh     change        0.5875023E-02 Eh
   gradient norm :     0.1229559 Eh/α   predicted    -0.1354822E-01 (-330.61%)
   displ. norm   :     0.3220971 α      lambda       -0.3153409E-01
   maximum displ.:     0.3068128 α      in ANC's #2, #6, #1, ...

........................................................................
.............................. CYCLE    9 ..............................
........................................................................
   1     -3.3712731 -0.337127E+01  0.236E+00    2.26       0.0  T
   2     -3.3642337  0.703943E-02  0.194E+00    2.20       1.0  T
   3     -3.3322781  0.319556E-01  0.384E+00    2.42       1.0  T
   4     -3.3713877 -0.391096E-01  0.761E-01    2.29       1.0  T
   5     -3.3697348  0.165290E-02  0.992E-01    2.30       1.0  T
   6     -3.3719381 -0.220336E-02  0.327E-01    2.29       1.0  T
   7     -3.3720860 -0.147863E-03  0.133E-01    2.29       1.0  T
   8     -3.3721169 -0.309246E-04  0.710E-02    2.29       1.0  T
   9     -3.3721281 -0.112069E-04  0.115E-02    2.29       3.9  T
  10     -3.3721282 -0.845696E-07  0.661E-03    2.29       6.8  T
  11     -3.3721283 -0.941908E-07  0.197E-03    2.29      22.7  T
  12     -3.3721283 -0.166508E-07  0.584E-04    2.29      76.5  T
  13     -3.3721283 -0.817697E-09  0.297E-04    2.29     150.5  T
     SCC iter.                  ...        0 min,  0.001 sec
     gradient                   ...        0 min,  0.000 sec
 * total energy  :    -3.3329830 Eh     change       -0.1341514E-01 Eh
   gradient norm :     0.0372070 Eh/α   predicted    -0.1740282E-01 (  29.73%)
   displ. norm   :     0.5707941 α      lambda       -0.1420151E-01
   maximum displ.:     0.4789720 α      in ANC's #3, #8, #4, ...

........................................................................
.............................. CYCLE   10 ..............................
........................................................................
   1     -3.3390604 -0.333906E+01  0.434E+00    2.08       0.0  T
   2     -3.1971398  0.141921E+00  0.600E+00    2.11       1.0  T
   3     -3.2695915 -0.724516E-01  0.629E+00    2.08       1.0  T
   4     -3.3005605 -0.309690E-01  0.462E+00    2.07       1.0  T
   5     -3.3503554 -0.497949E-01  0.109E+00    1.99       1.0  T
   6     -3.3525932 -0.223783E-02  0.681E-01    1.98       1.0  T
   7     -3.3531811 -0.587850E-03  0.432E-01    1.98       1.0  T
   8     -3.3531331  0.479662E-04  0.504E-01    1.98       1.0  T
   9     -3.3532820 -0.148896E-03  0.930E-02    1.96       1.0  T
  10     -3.3532486  0.334690E-04  0.151E-01    1.96       1.0  T
  11     -3.3532823 -0.337053E-04  0.334E-02    1.96       1.3  T
  12     -3.3532826 -0.341690E-06  0.202E-02    1.96       2.2  T
  13     -3.3532827 -0.475475E-07  0.763E-03    1.96       5.9  T
  14     -3.3532827 -0.577090E-08  0.281E-03    1.96      15.9  T
  15     -3.3532827 -0.230759E-08  0.435E-04    1.96     102.8  T
  16     -3.3532827 -0.122832E-09  0.175E-04    1.96     254.9  T
     SCC iter.                  ...        0 min,  0.002 sec
     gradient                   ...        0 min,  0.000 sec
 * total energy  :    -3.3295332 Eh     change        0.3449771E-02 Eh
   gradient norm :     0.0461724 Eh/α   predicted    -0.9414225E-02 (-372.89%)
   displ. norm   :     0.2554346 α      lambda       -0.9852314E-02
   maximum displ.:     0.1518105 α      in ANC's #1, #3, #4, ...

........................................................................
.............................. CYCLE   11 ..............................
........................................................................
   1     -3.3645440 -0.336454E+01  0.161E+00    2.06       0.0  T
   2     -3.3375132  0.270308E-01  0.326E+00    2.13       1.0  T
   3     -3.3656392 -0.281260E-01  0.117E+00    2.07       1.0  T
   4     -3.3664742 -0.835012E-03  0.650E-01    2.07       1.0  T
   5     -3.3674399 -0.965708E-03  0.100E-01    2.07       1.0  T
   6     -3.3674434 -0.352315E-05  0.522E-02    2.07       1.0  T
   7     -3.3674441 -0.654203E-06  0.329E-02    2.07       1.4  T
   8     -3.3674448 -0.750757E-06  0.165E-02    2.07       2.7  T
   9     -3.3674449 -0.108504E-06  0.110E-02    2.07       4.1  T
  10     -3.3674451 -0.164855E-06  0.445E-03    2.07      10.1  T
  11     -3.3674451 -0.332084E-07  0.151E-03    2.07      29.6  T
  12     -3.3674451 -0.193067E-08  0.956E-04    2.07      46.8  T
  13     -3.3674451 -0.128990E-08  0.524E-04    2.07      85.4  T
     SCC iter.                  ...        0 min,  0.001 sec
     gradient                   ...        0 min,  0.000 sec
 * total energy  :    -3.3366744 Eh     change       -0.7141186E-02 Eh
   gradient norm :     0.0260568 Eh/α   predicted    -0.5247577E-02 ( -26.52%)
   displ. norm   :     0.4282544 α      lambda       -0.9146045E-02
   maximum displ.:     0.3653083 α      in ANC's #3, #4, #2, ...

........................................................................
.............................. CYCLE   12 ..............................
........................................................................
   1     -3.3832074 -0.338321E+01  0.265E+00    2.33       0.0  T
   2     -3.3190894  0.641180E-01  0.435E+00    2.28       1.0  T
   3     -3.3707119 -0.516225E-01  0.296E+00    2.39       1.0  T
   4     -3.3812054 -0.104936E-01  0.165E+00    2.37       1.0  T
   5     -3.3882855 -0.708011E-02  0.548E-01    2.34       1.0  T
   6     -3.3881044  0.181155E-03  0.538E-01    2.35       1.0  T
   7     -3.3886977 -0.593287E-03  0.244E-01    2.36       1.0  T
   8     -3.3888058 -0.108126E-03  0.104E-01    2.36       1.0  T
   9     -3.3888331 -0.272898E-04  0.250E-02    2.36       1.8  T
  10     -3.3888342 -0.106977E-05  0.554E-03    2.36       8.1  T
  11     -3.3888342 -0.357794E-07  0.358E-03    2.36      12.5  T
  12     -3.3888342 -0.324569E-07  0.164E-03    2.36      27.3  T
  13     -3.3888342 -0.796951E-08  0.213E-04    2.36     209.5  T
  14     -3.3888342  0.126077E-11  0.108E-04    2.36     413.9  T
     SCC iter.                  ...        0 min,  0.001 sec
     gradient                   ...        0 min,  0.000 sec
 * total energy  :    -3.3384509 Eh     change       -0.1776447E-02 Eh
   gradient norm :     0.0356110 Eh/α   predicted    -0.5411725E-02 ( 204.64%)
   displ. norm   :     0.2387631 α      lambda       -0.7492771E-02
   maximum displ.:     0.2046358 α      in ANC's #3, #8, #1, ...

........................................................................
.............................. CYCLE   13 ..............................
........................................................................
   1     -3.3763479 -0.337635E+01  0.174E+00    2.21       0.0  T
   2     -3.3585383  0.178096E-01  0.223E+00    2.24       1.0  T
   3     -3.3641928 -0.565447E-02  0.251E+00    2.19       1.0  T
   4     -3.3742030 -0.100102E-01  0.127E+00    2.19       1.0  T
   5     -3.3782007 -0.399773E-02  0.258E-01    2.19       1.0  T
   6     -3.3782978 -0.970896E-04  0.130E-01    2.19       1.0  T
   7     -3.3782420  0.558494E-04  0.186E-01    2.18       1.0  T
   8     -3.3783115 -0.694900E-04  0.407E-02    2.18       1.1  T
   9     -3.3783144 -0.298449E-05  0.183E-02    2.18       2.4  T
  10     -3.3783151 -0.634407E-06  0.366E-03    2.18      12.2  T
  11     -3.3783151 -0.392293E-07  0.567E-04    2.18      78.8  T
  12     -3.3783151  0.778941E-10  0.518E-04    2.18      86.4  T
     SCC iter.                  ...        0 min,  0.001 sec
     gradient                   ...        0 min,  0.000 sec
 * total energy  :    -3.3408021 Eh     change       -0.2351267E-02 Eh
   gradient norm :     0.0120952 Eh/α   predicted    -0.3959957E-02 (  68.42%)
   displ. norm   :     0.0737310 α      lambda       -0.7642375E-03
   maximum displ.:     0.0637520 α      in ANC's #4, #3, #9, ...

........................................................................
.............................. CYCLE   14 ..............................
........................................................................
   1     -3.3802189 -0.338022E+01  0.508E-01    2.21       0.0  T
   2     -3.3772909  0.292799E-02  0.962E-01    2.20       1.0  T
   3     -3.3800519 -0.276104E-02  0.494E-01    2.21       1.0  T
   4     -3.3802655 -0.213590E-03  0.311E-01    2.21       1.0  T
   5     -3.3804539 -0.188385E-03  0.141E-01    2.21       1.0  T
   6     -3.3804840 -0.301176E-04  0.443E-02    2.21       1.0  T
   7     -3.3804882 -0.413153E-05  0.956E-03    2.21       4.7  T
   8     -3.3804880  0.156935E-06  0.107E-02    2.21       4.2  T
   9     -3.3804882 -0.177924E-06  0.173E-03    2.21      25.9  T
  10     -3.3804882  0.548460E-09  0.814E-04    2.21      54.9  T
  11     -3.3804882 -0.100384E-08  0.155E-04    2.21     288.5  T
     SCC iter.                  ...        0 min,  0.001 sec
     gradient                   ...        0 min,  0.000 sec
 * total energy  :    -3.3413899 Eh     change       -0.5877249E-03 Eh
   gradient norm :     0.0072605 Eh/α   predicted    -0.3841958E-03 ( -34.63%)
   displ. norm   :     0.1256727 α      lambda       -0.6086364E-03
   maximum displ.:     0.1022808 α      in ANC's #4, #5, #9, ...

........................................................................
.............................. CYCLE   15 ..............................
........................................................................
   1     -3.3816899 -0.338169E+01  0.562E-01    2.26       0.0  T
   2     -3.3788129  0.287704E-02  0.989E-01    2.25       1.0  T
   3     -3.3816118 -0.279897E-02  0.442E-01    2.26       1.0  T
   4     -3.3819264 -0.314578E-03  0.107E-01    2.25       1.0  T
   5     -3.3819308 -0.440950E-05  0.769E-02    2.25       1.0  T
   6     -3.3819424 -0.115644E-04  0.181E-02    2.25       2.5  T
   7     -3.3819428 -0.438865E-06  0.560E-03    2.25       8.0  T
   8     -3.3819429 -0.736617E-07  0.188E-03    2.25      23.8  T
   9     -3.3819429 -0.777884E-09  0.738E-04    2.25      60.6  T
  10     -3.3819429  0.473783E-09  0.618E-04    2.25      72.4  T
     SCC iter.                  ...        0 min,  0.001 sec
     gradient                   ...        0 min,  0.000 sec
 * total energy  :    -3.3416656 Eh     change       -0.2757828E-03 Eh
   gradient norm :     0.0046660 Eh/α   predicted    -0.3091267E-03 (  12.09%)
   displ. norm   :     0.0414036 α      lambda       -0.1239538E-03
   maximum displ.:     0.0268887 α      in ANC's #8, #3, #5, ...

........................................................................
.............................. CYCLE   16 ..............................
........................................................................
   1     -3.3818351 -0.338184E+01  0.217E-01    2.25       0.0  T
   2     -3.3813045  0.530658E-03  0.403E-01    2.24       1.0  T
   3     -3.3818145 -0.510048E-03  0.202E-01    2.25       1.0  T
   4     -3.3818430 -0.285103E-04  0.144E-01    2.25       1.0  T
   5     -3.3818666 -0.235333E-04  0.899E-02    2.25       1.0  T
   6     -3.3818857 -0.191037E-04  0.707E-03    2.25       6.3  T
   7     -3.3818856  0.115473E-06  0.728E-03    2.25       6.1  T
   8     -3.3818857 -0.112903E-06  0.258E-03    2.25      17.3  T
   9     -3.3818857 -0.829354E-08  0.178E-03    2.25      25.2  T
  10     -3.3818857 -0.553166E-08  0.459E-04    2.25      97.4  T
  11     -3.3818857 -0.223841E-09  0.258E-04    2.25     173.3  T
     SCC iter.                  ...        0 min,  0.001 sec
     gradient                   ...        0 min,  0.000 sec
 * total energy  :    -3.3417378 Eh     change       -0.7216037E-04 Eh
   gradient norm :     0.0032810 Eh/α   predicted    -0.6208451E-04 ( -13.96%)
   displ. norm   :     0.0627560 α      lambda       -0.1188879E-03
   maximum displ.:     0.0317761 α      in ANC's #1, #6, #5, ...

........................................................................
.............................. CYCLE   17 ..............................
........................................................................
   1     -3.3812000 -0.338120E+01  0.262E-01    2.25       0.0  T
   2     -3.3811944  0.562662E-05  0.207E-01    2.25       1.0  T
   3     -3.3808655  0.328883E-03  0.307E-01    2.25       1.0  T
   4     -3.3811299 -0.264372E-03  0.184E-01    2.25       1.0  T
   5     -3.3812107 -0.807808E-04  0.538E-02    2.25       1.0  T
   6     -3.3812110 -0.313973E-06  0.255E-02    2.24       1.8  T
   7     -3.3812119 -0.902326E-06  0.143E-02    2.24       3.1  T
   8     -3.3812122 -0.312265E-06  0.840E-03    2.24       5.3  T
   9     -3.3812123 -0.151351E-06  0.141E-03    2.24      31.8  T
  10     -3.3812123 -0.255113E-08  0.425E-04    2.24     105.2  T
  11     -3.3812123 -0.294256E-09  0.149E-04    2.24     299.5  T
     SCC iter.                  ...        0 min,  0.001 sec
     gradient                   ...        0 min,  0.000 sec
 * total energy  :    -3.3418359 Eh     change       -0.9812491E-04 Eh
   gradient norm :     0.0025535 Eh/α   predicted    -0.5967862E-04 ( -39.18%)
   displ. norm   :     0.1887283 α      lambda       -0.2496139E-03
   maximum displ.:     0.0927277 α      in ANC's #1, #6, #5, ...

........................................................................
.............................. CYCLE   18 ..............................
........................................................................
   1     -3.3796964 -0.337970E+01  0.752E-01    2.25       0.0  T
   2     -3.3795270  0.169411E-03  0.628E-01    2.24       1.0  T
   3     -3.3770391  0.248787E-02  0.902E-01    2.25       1.0  T
   4     -3.3794339 -0.239480E-02  0.410E-01    2.23       1.0  T
   5     -3.3797999 -0.365998E-03  0.121E-01    2.23       1.0  T
   6     -3.3798031 -0.316462E-05  0.449E-02    2.23       1.0  T
   7     -3.3798055 -0.247514E-05  0.222E-02    2.23       2.0  T
   8     -3.3798058 -0.299436E-06  0.174E-02    2.23       2.6  T
   9     -3.3798062 -0.381699E-06  0.101E-02    2.23       4.4  T
  10     -3.3798065 -0.260704E-06  0.215E-03    2.23      20.8  T
  11     -3.3798065 -0.527766E-08  0.524E-04    2.23      85.3  T
  12     -3.3798065 -0.935305E-10  0.467E-04    2.23      95.8  T
     SCC iter.                  ...        0 min,  0.001 sec
     gradient                   ...        0 min,  0.000 sec
 * total energy  :    -3.3419752 Eh     change       -0.1393206E-03 Eh
   gradient norm :     0.0029553 Eh/α   predicted    -0.1292537E-03 (  -7.23%)
   displ. norm   :     0.0404967 α      lambda       -0.4263276E-04
   maximum displ.:     0.0224921 α      in ANC's #2, #6, #5, ...

........................................................................
.............................. CYCLE   19 ..............................
........................................................................
   1     -3.3801927 -0.338019E+01  0.159E-01    2.24       0.0  T
   2     -3.3801694  0.233643E-04  0.138E-01    2.23       1.0  T
   3     -3.3800717  0.976299E-04  0.211E-01    2.24       1.0  T
   4     -3.3801969 -0.125107E-03  0.474E-02    2.23       1.0  T
   5     -3.3801924  0.449015E-05  0.474E-02    2.23       1.0  T
   6     -3.3801985 -0.613335E-05  0.301E-03    2.23      14.9  T
   7     -3.3801985  0.102369E-07  0.257E-03    2.23      17.4  T
   8     -3.3801985 -0.798109E-08  0.160E-03    2.23      27.9  T
   9     -3.3801985 -0.515812E-08  0.360E-04    2.23     124.2  T
  10     -3.3801985 -0.448428E-10  0.212E-04    2.23     210.7  T
     SCC iter.                  ...        0 min,  0.001 sec
     gradient                   ...        0 min,  0.000 sec
 * total energy  :    -3.3420084 Eh     change       -0.3316236E-04 Eh
   gradient norm :     0.0018514 Eh/α   predicted    -0.2135201E-04 ( -35.61%)
   displ. norm   :     0.0782152 α      lambda       -0.3658779E-04
   maximum displ.:     0.0477193 α      in ANC's #2, #6, #5, ...

........................................................................
.............................. CYCLE   20 ..............................
........................................................................
   1     -3.3811773 -0.338118E+01  0.307E-01    2.24       0.0  T
   2     -3.3811806 -0.331963E-05  0.217E-01    2.24       1.0  T
   3     -3.3809220  0.258662E-03  0.278E-01    2.25       1.0  T
   4     -3.3811755 -0.253501E-03  0.116E-01    2.24       1.0  T
   5     -3.3811585  0.169908E-04  0.115E-01    2.24       1.0  T
   6     -3.3811927 -0.342406E-04  0.718E-03    2.24       6.2  T
   7     -3.3811927 -0.153054E-07  0.451E-03    2.24       9.9  T
   8     -3.3811927 -0.586440E-08  0.346E-03    2.24      12.9  T
   9     -3.3811927 -0.256279E-07  0.124E-03    2.24      36.2  T
  10     -3.3811927 -0.146222E-08  0.750E-04    2.24      59.7  T
  11     -3.3811928 -0.138340E-08  0.140E-04    2.24     320.4  T
     SCC iter.                  ...        0 min,  0.001 sec
     gradient                   ...        0 min,  0.000 sec
 * total energy  :    -3.3420275 Eh     change       -0.1906384E-04 Eh
   gradient norm :     0.0008961 Eh/α   predicted    -0.1834298E-04 (  -3.78%)
   displ. norm   :     0.0091534 α      lambda       -0.3848157E-05
   maximum displ.:     0.0072828 α      in ANC's #3, #4, #1, ...
 * RMSD in coord.:     1.6208177 α      energy gain  -0.4156414E+00 Eh

generating ANC from model Hessian ...
Using Lindh-Hessian (1995)
 Shifting diagonal of input Hessian by    0.0000000000000000     
 Lowest  eigenvalues of input Hessian
    0.000000    0.000000    0.000000    0.000000    0.000000    0.000000
    0.017427    0.018925    0.036407    0.058558    0.061134    0.264727
    0.460418    0.783546    0.813081
 Highest eigenvalues
    0.058558    0.061134    0.264727    0.460418    0.783546    0.813081


........................................................................
.............................. CYCLE   21 ..............................
........................................................................
   1     -3.3809009 -0.338090E+01  0.362E-02    2.24       0.0  T
   2     -3.3809011 -0.188984E-06  0.242E-02    2.24       1.8  T
   3     -3.3809004  0.722686E-06  0.176E-02    2.24       2.5  T
   4     -3.3809000  0.307988E-06  0.176E-02    2.24       2.5  T
   5     -3.3809008 -0.747761E-06  0.118E-02    2.24       3.8  T
   6     -3.3809011 -0.334113E-06  0.117E-03    2.24      38.3  T
   7     -3.3809011  0.103640E-08  0.876E-04    2.24      51.1  T
   8     -3.3809011 -0.105646E-08  0.475E-04    2.24      94.1  T
     SCC iter.                  ...        0 min,  0.001 sec
     gradient                   ...        0 min,  0.000 sec
 * total energy  :    -3.3420302 Eh     change       -0.2765220E-05 Eh
   gradient norm :     0.0002809 Eh/α   predicted     0.0000000E+00 (-100.00%)
   displ. norm   :     0.0032764 α      lambda       -0.2948771E-06
   maximum displ.:     0.0026257 α      in ANC's #1, #4, #6, ...

   *** GEOMETRY OPTIMIZATION CONVERGED AFTER 21 ITERATIONS ***

------------------------------------------------------------------------
 total energy gain   :        -0.4156441 Eh     -260.8206 kcal/mol
 total RMSD          :         1.6208177 a0        0.8577 Å
 total power (kW/mol):       -51.9654036 (step)********** (real)
------------------------------------------------------------------------

 ANCopt (total)                0 d,  0 h,  0 min,  0.043 sec
 optimizer setup                ...        0 min,  0.000 sec (  0.101%)
 model hessian                  ...        0 min,  0.000 sec (  0.122%)
 ANC generation                 ...        0 min,  0.000 sec (  0.106%)
 coordinate transformation      ...        0 min,  0.000 sec (  0.103%)
 single point calculation       ...        0 min,  0.041 sec ( 96.042%)
 optimization log               ...        0 min,  0.000 sec (  1.063%)
 hessian update                 ...        0 min,  0.000 sec (  1.069%)
 rational function              ...        0 min,  0.000 sec (  0.619%)

================
 final structure:
================
5
 xtb: 6.5.1 (conda-forge)
Be           0.95104426734139        0.03424586407356        0.61503772535067
B            2.43255553636069        0.17752758714730        1.56317231672225
H            3.29808989378705       -0.42583392950483        1.02623771001476
H            2.64880928147434        1.32310025757533        1.77033018348873
H            1.91150102103653       -0.40409477929135        2.47772206442359

 Bond Distances (Angstroems)
 ---------------------------
Be1-B2=1.7648        B2-Be1=1.7648        B2-H3=1.1838         B2-H4=1.1841         B2-H5=1.2026         H3-B2=1.1838         
H4-B2=1.1841         H5-B2=1.2026         
 B  H  Rav=1.1902 sigma=0.0088  Rmin=1.1838  Rmax=1.2026     3
 B  Be Rav=1.7648 sigma=0.0000  Rmin=1.7648  Rmax=1.7648     1

 selected bond angles (degree)
 --------------------
H3-B2-Be1=109.19               H4-B2-Be1=109.02               H4-B2-H3=116.03                H5-B2-Be1= 90.32               
H5-B2-H3=114.53                H5-B2-H4=114.46                

 selected dihedral angles (degree)
 ---------------------------------


 CMA Distance (Angstroems)
 ---------------------------
R(CMA):  1.8218
           -------------------------------------------------
          |                Final Singlepoint                |
           -------------------------------------------------

          ...................................................
          :                      SETUP                      :
          :.................................................:
          :  # basis functions                  11          :
          :  # atomic orbitals                  11          :
          :  # shells                            7          :
          :  # electrons                         8          :
          :  max. iterations                   250          :
          :  Hamiltonian                  GFN2-xTB          :
          :  restarted?                      false          :
          :  GBSA solvation                  false          :
          :  PC potential                    false          :
          :  electronic temp.          300.0000000     K    :
          :  accuracy                    1.0000000          :
          :  -> integral cutoff          0.2500000E+02      :
          :  -> integral neglect         0.1000000E-07      :
          :  -> SCF convergence          0.1000000E-05 Eh   :
          :  -> wf. convergence          0.1000000E-03 e    :
          :  Broyden damping             0.4000000          :
          ...................................................

 iter      E             dE          RMSdq      gap      omega  full diag
   1     -3.3809011 -0.338090E+01  0.901E-05    2.24       0.0  T
   2     -3.3809011  0.113425E-09  0.184E-04    2.24     243.3  T
   3     -3.3809011 -0.112699E-09  0.819E-05    2.24     546.3  T

   *** convergence criteria satisfied after 3 iterations ***

         #    Occupation            Energy/Eh            Energy/eV
      -------------------------------------------------------------
         1        2.0000           -0.4741650             -12.9027
         2        2.0000           -0.3976262             -10.8200
         3        2.0000           -0.3947946             -10.7429
         4        2.0000           -0.3373195              -9.1789 (HOMO)
         5                         -0.2550972              -6.9415 (LUMO)
         6                         -0.2048690              -5.5748
         7                         -0.1944150              -5.2903
         8                          0.2698184               7.3421
         9                          0.3246296               8.8336
       ...                                ...                  ...
        11                          0.5889352              16.0257
      -------------------------------------------------------------
                  HL-Gap            0.0822223 Eh            2.2374 eV
             Fermi-level           -0.2962083 Eh           -8.0602 eV

 SCC (total)                   0 d,  0 h,  0 min,  0.001 sec
 SCC setup                      ...        0 min,  0.000 sec (  4.346%)
 Dispersion                     ...        0 min,  0.000 sec (  5.594%)
 classical contributions        ...        0 min,  0.000 sec (  2.517%)
 integral evaluation            ...        0 min,  0.000 sec ( 10.026%)
 iterations                     ...        0 min,  0.000 sec ( 36.596%)
 molecular gradient             ...        0 min,  0.000 sec ( 38.425%)
 printout                       ...        0 min,  0.000 sec (  1.635%)

         :::::::::::::::::::::::::::::::::::::::::::::::::::::
         ::                     SUMMARY                     ::
         :::::::::::::::::::::::::::::::::::::::::::::::::::::
         :: total energy              -3.342030230739 Eh    ::
         :: gradient norm              0.000280418467 Eh/a0 ::
         :: HOMO-LUMO gap              2.237383349928 eV    ::
         ::.................................................::
         :: SCC energy                -3.380901127706 Eh    ::
         :: -> isotropic ES            0.022769965610 Eh    ::
         :: -> anisotropic ES          0.002498914412 Eh    ::
         :: -> anisotropic XC         -0.000306784673 Eh    ::
         :: -> dispersion             -0.001594771340 Eh    ::
         :: repulsion energy           0.038870862871 Eh    ::
         :: add. restraining           0.000000000000 Eh    ::
         :: total charge              -0.000000000000 e     ::
         :::::::::::::::::::::::::::::::::::::::::::::::::::::

           -------------------------------------------------
          |                Property Printout                |
           -------------------------------------------------

    * Orbital Energies and Occupations

         #    Occupation            Energy/Eh            Energy/eV
      -------------------------------------------------------------
         1        2.0000           -0.4741650             -12.9027
         2        2.0000           -0.3976262             -10.8200
         3        2.0000           -0.3947946             -10.7429
         4        2.0000           -0.3373195              -9.1789 (HOMO)
         5                         -0.2550972              -6.9415 (LUMO)
         6                         -0.2048690              -5.5748
         7                         -0.1944150              -5.2903
         8                          0.2698184               7.3421
         9                          0.3246296               8.8336
        10                          0.3402495               9.2587
        11                          0.5889352              16.0257
      -------------------------------------------------------------
                  HL-Gap            0.0822223 Eh            2.2374 eV
             Fermi-level           -0.2962083 Eh           -8.0602 eV

     #   Z          covCN         q      C6AA      α(0)
     1   4 Be       0.907     0.268    72.050    25.459
     2   5 B        3.699     0.106    20.694     7.363
     3   1 H        0.934    -0.123     6.423     3.963
     4   1 H        0.934    -0.123     6.429     3.965
     5   1 H        0.927    -0.128     6.664     4.037

 Mol. C6AA /au·bohr⁶  :        388.818379
 Mol. C8AA /au·bohr⁸  :      11365.700353
 Mol. α(0) /au        :         44.785872


Wiberg/Mayer (AO) data.
largest (>0.10) Wiberg bond orders for each atom

 ---------------------------------------------------------------------------
     #   Z sym  total        # sym  WBO       # sym  WBO       # sym  WBO
 ---------------------------------------------------------------------------
     1   4 Be   1.254 --     2 B    0.964     5 H    0.138
     2   5 B    3.624 --     1 Be   0.964     3 H    0.908     4 H    0.908
                             5 H    0.845
     3   1 H    0.985 --     2 B    0.908
     4   1 H    0.985 --     2 B    0.908
     5   1 H    0.984 --     2 B    0.845     1 Be   0.138
 ---------------------------------------------------------------------------

Topologies differ in total number of bonds
Writing topology from bond orders to xtbtopo.mol

molecular dipole:
                 x           y           z       tot (Debye)
 q only:       -0.873      -0.057      -0.625
   full:       -0.832      -0.329       0.061       2.279
molecular quadrupole (traceless):
                xx          xy          yy          xz          yz          zz
 q only:       -4.272      -0.560       3.974      -5.561      -0.378       0.298
  q+dip:       -4.687      -1.292       2.890      -3.321      -0.711       1.796
   full:       -4.870      -1.334       3.182      -3.666      -0.652       1.688
Note: The following floating-point exceptions are signalling: IEEE_UNDERFLOW_FLAG
normal termination of xtb

           -------------------------------------------------
          |                Geometry Summary                 |
           -------------------------------------------------

      molecular mass/u    :       22.8470334
   center of mass at/Å    :        1.8729004       0.1192704       1.2149720
  moments of inertia/u·Å² :        0.3975308E+01   0.2031404E+02   0.2040477E+02
rotational constants/cm⁻¹ :        0.4240585E+01   0.8298513E+00   0.8261614E+00

 * 4 selected distances

     #   Z          #   Z                                           value/Å
     1   4 Be       2   5 B                                       1.7647564 (max)
     2   5 B        3   1 H                                       1.1838471 (min)
     2   5 B        4   1 H                                       1.1840680
     2   5 B        5   1 H                                       1.2025739

 * 2 distinct bonds (by element types)

   Z      Z             #   av. dist./Å        max./Å        min./Å
   1 H    5 B           3     1.1901630     1.2025739     1.1838471
   4 Be   5 B           1     1.7647564     1.7647564     1.7647564


optimized geometry written to: xtbopt.xyz


           -------------------------------------------------
          | TOTAL ENERGY               -3.342030230739 Eh   |
          | GRADIENT NORM               0.000280418467 Eh/α |
          | HOMO-LUMO GAP               2.237383349928 eV   |
           -------------------------------------------------
########################################################################
[WARNING] Runtime exception occurred
-3- restart_readRestart: Dimension missmatch in restart file.
-2- restart_readRestart: Multiplicity missmatch in restart file.
-1- restart_readRestart: Number of electron missmatch in restart file.
########################################################################

------------------------------------------------------------------------
 * finished run on 2025/06/07 at 03:27:51.326     
------------------------------------------------------------------------
 total:
 * wall-time:     0 d,  0 h,  0 min,  0.064 sec
 *  cpu-time:     0 d,  0 h,  0 min,  0.730 sec
 * ratio c/w:    11.475 speedup
 SCF:
 * wall-time:     0 d,  0 h,  0 min,  0.016 sec
 *  cpu-time:     0 d,  0 h,  0 min,  0.174 sec
 * ratio c/w:    11.062 speedup
 ANC optimizer:
 * wall-time:     0 d,  0 h,  0 min,  0.044 sec
 *  cpu-time:     0 d,  0 h,  0 min,  0.517 sec
 * ratio c/w:    11.696 speedup

