      -----------------------------------------------------------      
     |                   =====================                   |     
     |                           x T B                           |     
     |                   =====================                   |     
     |                         S. Grimme                         |     
     |          Mulliken Center for Theoretical Chemistry        |     
     |                    University of Bonn                     |     
      -----------------------------------------------------------      

   * xtb version 6.5.1 (conda-forge) compiled by 'runner@Mac-1657629245115.local' on 2022-07-12

   xtb is free software: you can redistribute it and/or modify it under
   the terms of the GNU Lesser General Public License as published by
   the Free Software Foundation, either version 3 of the License, or
   (at your option) any later version.
   
   xtb is distributed in the hope that it will be useful,
   but WITHOUT ANY WARRANTY; without even the implied warranty of
   MERCHANTABILITY or FITNESS FOR A PARTICULAR PURPOSE.  See the
   GNU Lesser General Public License for more details.
   
   Cite this work as:
   * C. Bannwarth, E. Caldeweyher, S. Ehlert, A. Hansen, P. Pracht,
     J. Seibert, S. Spicher, S. Grimme, WIREs Comput. Mol. Sci., 2020, 11,
     e01493. DOI: 10.1002/wcms.1493
   
   for GFN2-xTB:
   * C. Bannwarth, S. Ehlert and S. Grimme., J. Chem. Theory Comput., 2019,
     15, 1652-1671. DOI: 10.1021/acs.jctc.8b01176
   for GFN1-xTB:
   * S. Grimme, C. Bannwarth, P. Shushkov, J. Chem. Theory Comput., 2017,
     13, 1989-2009. DOI: 10.1021/acs.jctc.7b00118
   for GFN0-xTB:
   * P. Pracht, E. Caldeweyher, S. Ehlert, S. Grimme, ChemRxiv, 2019, preprint.
     DOI: 10.26434/chemrxiv.8326202.v1
   for GFN-FF:
   * S. Spicher and S. Grimme, Angew. Chem. Int. Ed., 2020, 59, 15665-15673.
     DOI: 10.1002/anie.202004239
   
   for ALPB and GBSA implicit solvation:
   * S. Ehlert, M. Stahn, S. Spicher, S. Grimme, J. Chem. Theory Comput.,
     2021, 17, 4250-4261. DOI: 10.1021/acs.jctc.1c00471
   
   for DFT-D4:
   * E. Caldeweyher, C. Bannwarth and S. Grimme, J. Chem. Phys., 2017,
     147, 034112. DOI: 10.1063/1.4993215
   * E. Caldeweyher, S. Ehlert, A. Hansen, H. Neugebauer, S. Spicher,
     C. Bannwarth and S. Grimme, J. Chem. Phys., 2019, 150, 154122.
     DOI: 10.1063/1.5090222
   * E. Caldeweyher, J.-M. Mewes, S. Ehlert and S. Grimme, Phys. Chem. Chem. Phys.
     2020, 22, 8499-8512. DOI: 10.1039/D0CP00502A
   
   for sTDA-xTB:
   * S. Grimme and C. Bannwarth, J. Chem. Phys., 2016, 145, 054103.
     DOI: 10.1063/1.4959605
   
   in the mass-spec context:
   * V. Asgeirsson, C. Bauer and S. Grimme, Chem. Sci., 2017, 8, 4879.
     DOI: 10.1039/c7sc00601b
   * J. Koopman and S. Grimme, ACS Omega 2019, 4, 12, 15120-15133.
     DOI: 10.1021/acsomega.9b02011
   
   for metadynamics refer to:
   * S. Grimme, J. Chem. Theory Comput., 2019, 155, 2847-2862
     DOI: 10.1021/acs.jctc.9b00143
   
   for SPH calculations refer to:
   * S. Spicher and S. Grimme, J. Chem. Theory Comput., 2021, 17, 1701-1714
     DOI: 10.1021/acs.jctc.0c01306
   
   with help from (in alphabetical order)
   P. Atkinson, C. Bannwarth, F. Bohle, G. Brandenburg, E. Caldeweyher
   M. Checinski, S. Dohm, S. Ehlert, S. Ehrlich, I. Gerasimov, C. Hölzer
   A. Katbashev, J. Koopman, C. Lavigne, S. Lehtola, F. März, M. Müller,
   F. Musil, H. Neugebauer, J. Pisarek, C. Plett, P. Pracht, F. Pultar,
   J. Seibert, P. Shushkov, S. Spicher, M. Stahn, M. Steiner, T. Strunk,
   J. Stückrath, T. Rose, and J. Unsleber
   
 * started run on 2025/06/07 at 03:27:51.676     

           -------------------------------------------------
          |                Calculation Setup                |
           -------------------------------------------------

          program call               : xtb Be2C3H6.xyz --gfn 2 --opt
          coordinate file            : Be2C3H6.xyz
          omp threads                :                    16

   ID    Z sym.   atoms
    1    4 Be     1, 2
    2    6 C      3-5
    3    1 H      6-11

molecular fragmentation (1/2 indicates fragments):
12222222222
# atoms in fragment 1/2:     1    10
 fragment masses (1/2) :        9.01       51.09
CMA distance (Bohr)    :   7.862
constraining FC (au)   :  0.0500

           -------------------------------------------------
          |                 G F N 2 - x T B                 |
           -------------------------------------------------

        Reference                      10.1021/acs.jctc.8b01176
      * Hamiltonian:
        H0-scaling (s, p, d)           1.850000    2.230000    2.230000
        zeta-weighting                 0.500000
      * Dispersion:
        s8                             2.700000
        a1                             0.520000
        a2                             5.000000
        s9                             5.000000
      * Repulsion:
        kExp                           1.500000    1.000000
        rExp                           1.000000
      * Coulomb:
        alpha                          2.000000
        third order                    shell-resolved
        anisotropic                    true
        a3                             3.000000
        a5                             4.000000
        cn-shift                       1.200000
        cn-exp                         4.000000
        max-rad                        5.000000


          ...................................................
          :                      SETUP                      :
          :.................................................:
          :  # basis functions                  26          :
          :  # atomic orbitals                  26          :
          :  # shells                           16          :
          :  # electrons                        22          :
          :  max. iterations                   250          :
          :  Hamiltonian                  GFN2-xTB          :
          :  restarted?                      false          :
          :  GBSA solvation                  false          :
          :  PC potential                    false          :
          :  electronic temp.          300.0000000     K    :
          :  accuracy                    1.0000000          :
          :  -> integral cutoff          0.2500000E+02      :
          :  -> integral neglect         0.1000000E-07      :
          :  -> SCF convergence          0.1000000E-05 Eh   :
          :  -> wf. convergence          0.1000000E-03 e    :
          :  Broyden damping             0.4000000          :
          ...................................................

 iter      E             dE          RMSdq      gap      omega  full diag
   1     24.0812170  0.240812E+02  0.280E+01    0.09       0.0  T
   2     -2.1418016 -0.262230E+02  0.203E+01    1.12       1.0  T
   3     -4.8537278 -0.271193E+01  0.139E+01    2.04       1.0  T
   4     -5.3030756 -0.449348E+00  0.132E+01    0.56       1.0  T
   5     -6.1615304 -0.858455E+00  0.897E+00    0.56       1.0  T
   6     -8.5422059 -0.238068E+01  0.181E+01    0.24       1.0  T
   7     -7.5513246  0.990881E+00  0.821E+00    0.21       1.0  T
   8     -9.5597913 -0.200847E+01  0.126E+01    0.48       1.0  T
   9     -8.6159199  0.943871E+00  0.888E+00    0.18       1.0  T
  10     -7.7356854  0.880234E+00  0.760E+00    0.25       1.0  T
  11     -9.6104495 -0.187476E+01  0.147E+01    0.48       1.0  T
  12     -5.5363601  0.407409E+01  0.164E+01    0.33       1.0  T
  13     12.8024007  0.183388E+02  0.233E+01    0.50       1.0  T
  14      5.4038489 -0.739855E+01  0.231E+01    0.41       1.0  T
  15      6.5169499  0.111310E+01  0.232E+01    0.40       1.0  T
  16      7.4156214  0.898671E+00  0.231E+01    0.39       1.0  T
  17      6.9880879 -0.427533E+00  0.232E+01    0.40       1.0  T
  18     -9.5991245 -0.165872E+02  0.162E+01    0.53       1.0  T
  19     -6.3016415  0.329748E+01  0.128E+01    0.29       1.0  T
  20     -6.4921747 -0.190533E+00  0.155E+01    0.16       1.0  T
  21     -6.2796301  0.212545E+00  0.158E+01    0.18       1.0  T
  22     -5.7777817  0.501848E+00  0.187E+01    0.23       1.0  T
  23     -5.9738794 -0.196098E+00  0.201E+01    0.16       1.0  T
  24     -6.0776206 -0.103741E+00  0.204E+01    0.15       1.0  T
  25     -6.5475202 -0.469900E+00  0.192E+01    0.14       1.0  T
  26     -6.7215637 -0.174044E+00  0.179E+01    0.13       1.0  T
  27     -6.9313137 -0.209750E+00  0.172E+01    0.14       1.0  T
  28     -9.3602785 -0.242896E+01  0.214E+01    0.27       1.0  T
  29     -9.7171660 -0.356888E+00  0.210E+01    0.72       1.0  T
  30     -9.6791491  0.380169E-01  0.213E+01    0.74       1.0  T
  31     -9.7217334 -0.425843E-01  0.210E+01    0.71       1.0  T
  32     -9.7328777 -0.111443E-01  0.211E+01    0.70       1.0  T
  33      8.6653331  0.183982E+02  0.224E+01    0.18       1.0  T
  34      9.2874572  0.622124E+00  0.226E+01    0.20       1.0  T
  35      9.6167659  0.329309E+00  0.228E+01    0.21       1.0  T
  36      8.6867748 -0.929991E+00  0.224E+01    0.18       1.0  T
  37      9.7976665  0.111089E+01  0.228E+01    0.23       1.0  T
  38     10.7993273  0.100166E+01  0.230E+01    0.32       1.0  T
  39     11.6148911  0.815564E+00  0.229E+01    0.40       1.0  T
  40      7.7902892 -0.382460E+01  0.215E+01    0.13       1.0  T
  41     13.5813067  0.579102E+01  0.228E+01    0.98       1.0  T
  42     13.5828799  0.157314E-02  0.232E+01    0.84       1.0  T
  43     14.1352210  0.552341E+00  0.234E+01    0.63       1.0  T
  44     14.2988006  0.163580E+00  0.234E+01    0.58       1.0  T
  45     15.1544757  0.855675E+00  0.235E+01    0.50       1.0  T
  46     14.8582334 -0.296242E+00  0.235E+01    0.54       1.0  T
  47     14.7161086 -0.142125E+00  0.235E+01    0.60       1.0  T
  48     14.8084862  0.923775E-01  0.235E+01    0.57       1.0  T
  49     14.6968752 -0.111611E+00  0.235E+01    0.60       1.0  T
  50     15.1122953  0.415420E+00  0.235E+01    0.52       1.0  T
  51     15.2366606  0.124365E+00  0.235E+01    0.51       1.0  T
  52     15.1496734 -0.869872E-01  0.234E+01    0.46       1.0  T
  53     15.6804008  0.530727E+00  0.233E+01    0.34       1.0  T
  54     15.5522352 -0.128166E+00  0.233E+01    0.37       1.0  T
  55     16.0418825  0.489647E+00  0.230E+01    0.28       1.0  T
  56     15.2001064 -0.841776E+00  0.232E+01    0.40       1.0  T
  57     15.3438504  0.143744E+00  0.231E+01    0.35       1.0  T
  58     14.4483456 -0.895505E+00  0.231E+01    0.45       1.0  T
  59     14.2674133 -0.180932E+00  0.230E+01    0.49       1.0  T
  60     14.0625418 -0.204872E+00  0.229E+01    0.53       1.0  T
  61     11.6764294 -0.238611E+01  0.224E+01    0.81       1.0  T
  62     12.6414561  0.965027E+00  0.224E+01    0.64       1.0  T
  63     12.5254423 -0.116014E+00  0.224E+01    0.79       1.0  T
  64      7.6912938 -0.483415E+01  0.218E+01    0.54       1.0  T
  65     10.2569344  0.256564E+01  0.215E+01    0.68       1.0  T
  66     10.2774525  0.205182E-01  0.215E+01    0.68       1.0  T
  67     13.1520728  0.287462E+01  0.216E+01    0.69       1.0  T
  68     -6.8994379 -0.200515E+02  0.231E+01    0.13       1.0  T
  69      1.4656926  0.836513E+01  0.217E+01    0.20       1.0  T
  70     -0.0143462 -0.148004E+01  0.217E+01    0.15       1.0  T
  71     -4.2826240 -0.426828E+01  0.226E+01    0.22       1.0  T
  72     -3.9411385  0.341486E+00  0.226E+01    0.23       1.0  T
  73     -2.5654908  0.137565E+01  0.223E+01    0.23       1.0  T
  74     -0.4829190  0.208257E+01  0.224E+01    0.33       1.0  T
  75      0.2357866  0.718706E+00  0.226E+01    0.36       1.0  T
  76      1.4299284  0.119414E+01  0.232E+01    0.43       1.0  T
  77     -2.5461763 -0.397610E+01  0.231E+01    0.35       1.0  T
  78     -7.4060436 -0.485987E+01  0.233E+01    0.31       1.0  T
  79     -5.6655386  0.174050E+01  0.238E+01    0.33       1.0  T
  80      1.1268524  0.679239E+01  0.223E+01    0.27       1.0  T
  81     -3.7087180 -0.483557E+01  0.226E+01    0.36       1.0  T
  82     -6.4570685 -0.274835E+01  0.199E+01    0.21       1.0  T
  83     -5.6412184  0.815850E+00  0.206E+01    0.24       1.0  T
  84     -1.0378463  0.460337E+01  0.233E+01    0.39       1.0  T
  85      1.0354960  0.207334E+01  0.237E+01    0.45       1.0  T
  86      0.8831499 -0.152346E+00  0.240E+01    0.46       1.0  T
  87     -1.4157640 -0.229891E+01  0.229E+01    0.40       1.0  T
  88     -8.0544802 -0.663872E+01  0.154E+01    0.07       1.0  T
  89     -8.3965963 -0.342116E+00  0.151E+01    0.12       1.0  T
  90     -8.6859972 -0.289401E+00  0.169E+01    0.32       1.0  T
  91     -9.2588749 -0.572878E+00  0.154E+01    0.19       1.0  T
  92     -9.1686487  0.902262E-01  0.146E+01    0.08       1.0  T
  93     -9.2378452 -0.691965E-01  0.165E+01    0.77       1.0  T
  94     -9.0999337  0.137911E+00  0.166E+01    0.61       1.0  T
  95     -9.2387278 -0.138794E+00  0.163E+01    0.73       1.0  T
  96     -9.2627243 -0.239965E-01  0.163E+01    0.71       1.0  T
  97     -9.6770403 -0.414316E+00  0.150E+01    0.32       1.0  T
  98     -9.5402220  0.136818E+00  0.164E+01    0.53       1.0  T
  99     -9.4663758  0.738461E-01  0.163E+01    0.76       1.0  T
 100     -9.5516957 -0.853199E-01  0.157E+01    0.74       1.0  T
 101     -9.6768275 -0.125132E+00  0.149E+01    0.67       1.0  T
 102     -9.7883589 -0.111531E+00  0.138E+01    0.56       1.0  T
 103     -9.7874726  0.886252E-03  0.138E+01    0.56       1.0  T
 104     -9.7242411  0.632315E-01  0.142E+01    0.67       1.0  T
 105     -9.7093413  0.148997E-01  0.149E+01    0.67       1.0  T
 106     -9.6651732  0.441682E-01  0.153E+01    0.68       1.0  T
 107     -9.6529373  0.122359E-01  0.152E+01    0.70       1.0  T
 108     -9.5320599  0.120877E+00  0.150E+01    0.68       1.0  T
 109     -9.6552477 -0.123188E+00  0.146E+01    0.74       1.0  T
 110     -9.6824848 -0.272371E-01  0.139E+01    0.70       1.0  T
 111     -9.7223983 -0.399135E-01  0.137E+01    0.67       1.0  T
 112     -9.7361685 -0.137702E-01  0.137E+01    0.65       1.0  T
 113     -9.7411845 -0.501604E-02  0.136E+01    0.64       1.0  T
 114     -9.7419371 -0.752529E-03  0.136E+01    0.64       1.0  T
 115     -9.7431440 -0.120691E-02  0.136E+01    0.65       1.0  T
 116     -9.7450847 -0.194074E-02  0.135E+01    0.64       1.0  T
 117     -9.7592516 -0.141669E-01  0.132E+01    0.63       1.0  T
 118     -9.7918726 -0.326210E-01  0.126E+01    0.58       1.0  T
 119     -9.7670603  0.248123E-01  0.124E+01    0.56       1.0  T
 120     -9.7355011  0.315592E-01  0.119E+01    0.59       1.0  T
 121     -9.7423014 -0.680025E-02  0.115E+01    0.60       1.0  T
 122     -9.7808989 -0.385976E-01  0.112E+01    0.56       1.0  T
 123     -9.7948739 -0.139749E-01  0.110E+01    0.53       1.0  T
 124     -9.7828498  0.120241E-01  0.105E+01    0.57       1.0  T
 125     -9.7659479  0.169019E-01  0.102E+01    0.58       1.0  T
 126     -9.7690475 -0.309967E-02  0.990E+00    0.57       1.0  T
 127     -9.7640483  0.499922E-02  0.991E+00    0.56       1.0  T
 128     -9.7661555 -0.210715E-02  0.994E+00    0.55       1.0  T
 129     -9.8088998 -0.427443E-01  0.956E+00    0.53       1.0  T
 130     -9.8124015 -0.350171E-02  0.925E+00    0.53       1.0  T
 131     -9.8063676  0.603389E-02  0.884E+00    0.54       1.0  T
 132     -9.7937330  0.126346E-01  0.860E+00    0.56       1.0  T
 133     -9.8047466 -0.110136E-01  0.857E+00    0.54       1.0  T
 134     -9.8090468 -0.430023E-02  0.846E+00    0.53       1.0  T
 135     -9.8063583  0.268850E-02  0.817E+00    0.54       1.0  T
 136     -9.7977038  0.865448E-02  0.805E+00    0.56       1.0  T
 137     -9.7869214  0.107824E-01  0.788E+00    0.59       1.0  T
 138     -9.8025692 -0.156478E-01  0.775E+00    0.57       1.0  T
 139     -9.8121053 -0.953611E-02  0.764E+00    0.55       1.0  T
 140     -9.8098855  0.221978E-02  0.741E+00    0.56       1.0  T
 141     -9.8118895 -0.200399E-02  0.739E+00    0.56       1.0  T
 142     -9.8066549  0.523464E-02  0.759E+00    0.57       1.0  T
 143     -9.8111668 -0.451191E-02  0.793E+00    0.55       1.0  T
 144     -9.8094586  0.170820E-02  0.822E+00    0.55       1.0  T
 145     -9.8082526  0.120596E-02  0.852E+00    0.55       1.0  T
 146     -9.8095067 -0.125405E-02  0.872E+00    0.55       1.0  T
 147     -9.8099120 -0.405358E-03  0.878E+00    0.54       1.0  T
 148     -9.8091367  0.775302E-03  0.871E+00    0.55       1.0  T
 149     -9.8057930  0.334372E-02  0.855E+00    0.56       1.0  T
 150     -9.7988285  0.696453E-02  0.835E+00    0.58       1.0  T
 151     -9.7884094  0.104191E-01  0.816E+00    0.61       1.0  T
 152     -9.7769470  0.114623E-01  0.804E+00    0.63       1.0  T
 153     -9.7685927  0.835433E-02  0.801E+00    0.64       1.0  T
 154     -9.7647342  0.385854E-02  0.808E+00    0.64       1.0  T
 155     -9.7616512  0.308298E-02  0.823E+00    0.63       1.0  T
 156     -9.7524586  0.919259E-02  0.842E+00    0.63       1.0  T
 157     -9.7390075  0.134511E-01  0.859E+00    0.63       1.0  T
 158     -9.7272337  0.117738E-01  0.872E+00    0.63       1.0  T
 159     -9.7196706  0.756310E-02  0.881E+00    0.62       1.0  T
 160     -9.7166368  0.303382E-02  0.886E+00    0.62       1.0  T
 161     -9.7165466  0.901388E-04  0.887E+00    0.62       1.0  T
 162     -9.7154581  0.108853E-02  0.886E+00    0.62       1.0  T
 163     -9.7132526  0.220550E-02  0.888E+00    0.62       1.0  T
 164     -9.7154070 -0.215437E-02  0.885E+00    0.62       1.0  T
 165     -9.7280441 -0.126371E-01  0.867E+00    0.63       1.0  T
 166     -9.7475328 -0.194887E-01  0.839E+00    0.63       1.0  T
 167     -9.7647442 -0.172114E-01  0.803E+00    0.63       1.0  T
 168     -9.7771579 -0.124138E-01  0.758E+00    0.64       1.0  T
 169     -9.7921684 -0.150104E-01  0.709E+00    0.63       1.0  T
 170     -9.8176117 -0.254433E-01  0.656E+00    0.59       1.0  T
 171     -9.8545276 -0.369159E-01  0.594E+00    0.46       1.0  T
 172     -9.8944075 -0.398798E-01  0.533E+00    0.29       1.0  T
 173     -9.9088702 -0.144627E-01  0.518E+00    0.23       1.0  T
 174     -9.9055796  0.329062E-02  0.520E+00    0.24       1.0  T
 175     -9.8980148  0.756480E-02  0.521E+00    0.26       1.0  T
 176     -9.9115424 -0.135276E-01  0.512E+00    0.21       1.0  T
 177     -9.9150373 -0.349491E-02  0.506E+00    0.20       1.0  T
 178     -9.9044689  0.105684E-01  0.485E+00    0.20       1.0  T
 179     -9.7372866  0.167182E+00  0.890E+00    0.03       1.0  T
 180     -9.8192775 -0.819909E-01  0.468E+00    0.34       1.0  T
 181     -9.8912811 -0.720036E-01  0.613E+00    0.06       1.0  T
 182     -9.8699173  0.213638E-01  0.492E+00    0.23       1.0  T
 183     -9.9161876 -0.462703E-01  0.554E+00    0.09       1.0  T
 184     -9.9096484  0.653919E-02  0.507E+00    0.12       1.0  T
 185     -9.8506414  0.590070E-01  0.697E+00    0.05       1.0  T
 186     -9.9010629 -0.504215E-01  0.483E+00    0.13       1.0  T
 187     -9.9001198  0.943084E-03  0.491E+00    0.15       1.0  T
 188     -9.8996954  0.424352E-03  0.494E+00    0.12       1.0  T
 189     -9.8655502  0.341452E-01  0.597E+00    0.06       1.0  T
 190     -9.8926185 -0.270683E-01  0.475E+00    0.15       1.0  T
 191     -9.8941763 -0.155773E-02  0.483E+00    0.12       1.0  T
 192     -9.8907021  0.347420E-02  0.480E+00    0.12       1.0  T
 193     -9.8905396  0.162439E-03  0.471E+00    0.13       1.0  T
 194     -9.8688344  0.217053E-01  0.504E+00    0.18       1.0  T
 195     -9.8678863  0.948045E-03  0.507E+00    0.17       1.0  T
 196     -9.8816078 -0.137215E-01  0.473E+00    0.12       1.0  T
 197     -9.8832793 -0.167144E-02  0.483E+00    0.14       1.0  T
 198     -9.8913395 -0.806023E-02  0.478E+00    0.12       1.0  T
 199     -9.8916115 -0.272000E-03  0.485E+00    0.13       1.0  T
 200     -9.8972502 -0.563867E-02  0.476E+00    0.12       1.0  T
 201     -9.8979090 -0.658861E-03  0.481E+00    0.12       1.0  T
 202     -9.9021872 -0.427820E-02  0.472E+00    0.10       1.0  T
 203     -9.9027034 -0.516136E-03  0.480E+00    0.11       1.0  T
 204     -9.9055971 -0.289378E-02  0.471E+00    0.10       1.0  T
 205     -9.9063590 -0.761908E-03  0.480E+00    0.11       1.0  T
 206     -9.9085174 -0.215837E-02  0.471E+00    0.09       1.0  T
 207     -9.9097401 -0.122271E-02  0.478E+00    0.10       1.0  T
 208     -9.9114556 -0.171547E-02  0.471E+00    0.09       1.0  T
 209     -9.9129851 -0.152947E-02  0.474E+00    0.10       1.0  T
 210     -9.9149130 -0.192788E-02  0.469E+00    0.09       1.0  T
 211     -9.9173386 -0.242565E-02  0.468E+00    0.10       1.0  T
 212     -9.9212346 -0.389604E-02  0.460E+00    0.09       1.0  T
 213     -9.9262081 -0.497348E-02  0.450E+00    0.09       1.0  T
 214     -9.9303859 -0.417772E-02  0.436E+00    0.09       1.0  T
 215     -9.9322222 -0.183630E-02  0.421E+00    0.09       1.0  T
 216     -9.9317790  0.443131E-03  0.406E+00    0.09       1.0  T
 217     -9.9272789  0.450014E-02  0.388E+00    0.08       1.0  T
 218     -9.9103195  0.169594E-01  0.378E+00    0.06       1.0  T
 219     -9.8931682  0.171512E-01  0.381E+00    0.05       1.0  T
 220     -9.8919976  0.117062E-02  0.379E+00    0.06       1.0  T
 221     -9.8940282 -0.203055E-02  0.376E+00    0.06       1.0  T
 222     -9.8932908  0.737349E-03  0.372E+00    0.06       1.0  T
 223     -9.9098779 -0.165871E-01  0.362E+00    0.07       1.0  T
 224     -9.9211252 -0.112473E-01  0.359E+00    0.08       1.0  T
 225     -9.9071586  0.139666E-01  0.341E+00    0.06       1.0  T
 226     -9.9080414 -0.882803E-03  0.333E+00    0.06       1.0  T
 227     -9.9313438 -0.233024E-01  0.352E+00    0.09       1.0  T
 228     -9.9314138 -0.700557E-04  0.325E+00    0.08       1.0  T
 229     -9.9081673  0.232465E-01  0.315E+00    0.06       1.0  T
 230     -9.9231465 -0.149792E-01  0.307E+00    0.07       1.0  T
 231     -9.9200524  0.309416E-02  0.303E+00    0.07       1.0  T
 232     -9.8888025  0.312499E-01  0.324E+00    0.05       1.0  T
 233     -9.9061787 -0.173761E-01  0.303E+00    0.06       1.0  T
 234     -9.8841991  0.219795E-01  0.332E+00    0.05       1.0  T
 235     -9.8719319  0.122672E-01  0.343E+00    0.04       1.0  T
 236     -9.8828605 -0.109285E-01  0.330E+00    0.05       1.0  T
 237     -9.8545856  0.282749E-01  0.371E+00    0.04       1.0  T
 238     -9.8712041 -0.166185E-01  0.345E+00    0.04       1.0  T
 239     -9.8600359  0.111682E-01  0.365E+00    0.04       1.0  T
 240     -9.8612091 -0.117317E-02  0.362E+00    0.04       1.0  T
 241     -9.8846142 -0.234052E-01  0.337E+00    0.05       1.0  T
 242     -9.8598899  0.247243E-01  0.369E+00    0.04       1.0  T
 243     -9.8913199 -0.314300E-01  0.327E+00    0.05       1.0  T
 244     -9.8718681  0.194518E-01  0.356E+00    0.04       1.0  T
 245     -9.8878675 -0.159994E-01  0.331E+00    0.05       1.0  T
 246     -9.8767595  0.111080E-01  0.351E+00    0.05       1.0  T
 247     -9.8829540 -0.619448E-02  0.340E+00    0.05       1.0  T
 248     -9.8724901  0.104638E-01  0.359E+00    0.05       1.0  T
 249     -9.8724643  0.258611E-04  0.359E+00    0.05       1.0  T
 250     -9.8321721  0.402922E-01  0.425E+00    0.04       1.0  T

   *** convergence criteria cannot be satisfied within 250 iterations ***

         #    Occupation            Energy/Eh            Energy/eV
      -------------------------------------------------------------
         1        2.0000           -0.5865277             -15.9602
       ...           ...                  ...                  ...
         5        2.0000           -0.4617591             -12.5651
         6        2.0000           -0.3683679             -10.0238
         7        2.0000           -0.3564175              -9.6986
         8        2.0000           -0.3095661              -8.4237
         9        2.0000           -0.3039694              -8.2714
        10        2.0000           -0.3019152              -8.2155
        11        1.4013           -0.2668596              -7.2616 (HOMO)
        12        0.5987           -0.2652439              -7.2177 (LUMO)
        13                         -0.2483411              -6.7577
        14                         -0.2348815              -6.3915
        15                         -0.2138422              -5.8189
        16                         -0.2085316              -5.6744
       ...                                ...                  ...
        26                          0.7724854              21.0204
      -------------------------------------------------------------
                  HL-Gap            0.0016157 Eh            0.0440 eV
             Fermi-level           -0.2660517 Eh           -7.2396 eV

 SCC (total)                   0 d,  0 h,  0 min,  0.221 sec
Note: The following floating-point exceptions are signalling: IEEE_UNDERFLOW_FLAG
ERROR STOP 

Error termination. Backtrace:
#0  0x1032b0327
#1  0x1032b1147
#2  0x1032b272b
#3  0x1038ac2e7
#4  0x102e7cce7
#5  0x102e873bf
abnormal termination of xtb
 SCC setup                      ...        0 min,  0.000 sec (  0.030%)
 Dispersion                     ...        0 min,  0.000 sec (  0.049%)
 classical contributions        ...        0 min,  0.000 sec (  0.018%)
 integral evaluation            ...        0 min,  0.000 sec (  0.071%)
 iterations                     ...        0 min,  0.220 sec ( 99.572%)
 molecular gradient             ...        0 min,  0.001 sec (  0.239%)
 printout                       ...        0 min,  0.000 sec (  0.016%)

########################################################################
[ERROR] Program stopped due to fatal error
-5- Single point calculation terminated
-4- xtb_calculator_singlepoint: Electronic structure method terminated
-3- scf: Self consistent charge iterator did not converge
-2- restart_readRestart: Dimension missmatch in restart file.
-1- restart_readRestart: Number of electron missmatch in restart file.
########################################################################
