      -----------------------------------------------------------      
     |                   =====================                   |     
     |                           x T B                           |     
     |                   =====================                   |     
     |                         S. Grimme                         |     
     |          Mulliken Center for Theoretical Chemistry        |     
     |                    University of Bonn                     |     
      -----------------------------------------------------------      

   * xtb version 6.5.1 (conda-forge) compiled by 'runner@Mac-1657629245115.local' on 2022-07-12

   xtb is free software: you can redistribute it and/or modify it under
   the terms of the GNU Lesser General Public License as published by
   the Free Software Foundation, either version 3 of the License, or
   (at your option) any later version.
   
   xtb is distributed in the hope that it will be useful,
   but WITHOUT ANY WARRANTY; without even the implied warranty of
   MERCHANTABILITY or FITNESS FOR A PARTICULAR PURPOSE.  See the
   GNU Lesser General Public License for more details.
   
   Cite this work as:
   * C. Bannwarth, E. Caldeweyher, S. Ehlert, A. Hansen, P. Pracht,
     J. Seibert, S. Spicher, S. Grimme, WIREs Comput. Mol. Sci., 2020, 11,
     e01493. DOI: 10.1002/wcms.1493
   
   for GFN2-xTB:
   * C. Bannwarth, S. Ehlert and S. Grimme., J. Chem. Theory Comput., 2019,
     15, 1652-1671. DOI: 10.1021/acs.jctc.8b01176
   for GFN1-xTB:
   * S. Grimme, C. Bannwarth, P. Shushkov, J. Chem. Theory Comput., 2017,
     13, 1989-2009. DOI: 10.1021/acs.jctc.7b00118
   for GFN0-xTB:
   * P. Pracht, E. Caldeweyher, S. Ehlert, S. Grimme, ChemRxiv, 2019, preprint.
     DOI: 10.26434/chemrxiv.8326202.v1
   for GFN-FF:
   * S. Spicher and S. Grimme, Angew. Chem. Int. Ed., 2020, 59, 15665-15673.
     DOI: 10.1002/anie.202004239
   
   for ALPB and GBSA implicit solvation:
   * S. Ehlert, M. Stahn, S. Spicher, S. Grimme, J. Chem. Theory Comput.,
     2021, 17, 4250-4261. DOI: 10.1021/acs.jctc.1c00471
   
   for DFT-D4:
   * E. Caldeweyher, C. Bannwarth and S. Grimme, J. Chem. Phys., 2017,
     147, 034112. DOI: 10.1063/1.4993215
   * E. Caldeweyher, S. Ehlert, A. Hansen, H. Neugebauer, S. Spicher,
     C. Bannwarth and S. Grimme, J. Chem. Phys., 2019, 150, 154122.
     DOI: 10.1063/1.5090222
   * E. Caldeweyher, J.-M. Mewes, S. Ehlert and S. Grimme, Phys. Chem. Chem. Phys.
     2020, 22, 8499-8512. DOI: 10.1039/D0CP00502A
   
   for sTDA-xTB:
   * S. Grimme and C. Bannwarth, J. Chem. Phys., 2016, 145, 054103.
     DOI: 10.1063/1.4959605
   
   in the mass-spec context:
   * V. Asgeirsson, C. Bauer and S. Grimme, Chem. Sci., 2017, 8, 4879.
     DOI: 10.1039/c7sc00601b
   * J. Koopman and S. Grimme, ACS Omega 2019, 4, 12, 15120-15133.
     DOI: 10.1021/acsomega.9b02011
   
   for metadynamics refer to:
   * S. Grimme, J. Chem. Theory Comput., 2019, 155, 2847-2862
     DOI: 10.1021/acs.jctc.9b00143
   
   for SPH calculations refer to:
   * S. Spicher and S. Grimme, J. Chem. Theory Comput., 2021, 17, 1701-1714
     DOI: 10.1021/acs.jctc.0c01306
   
   with help from (in alphabetical order)
   P. Atkinson, C. Bannwarth, F. Bohle, G. Brandenburg, E. Caldeweyher
   M. Checinski, S. Dohm, S. Ehlert, S. Ehrlich, I. Gerasimov, C. Hölzer
   A. Katbashev, J. Koopman, C. Lavigne, S. Lehtola, F. März, M. Müller,
   F. Musil, H. Neugebauer, J. Pisarek, C. Plett, P. Pracht, F. Pultar,
   J. Seibert, P. Shushkov, S. Spicher, M. Stahn, M. Steiner, T. Strunk,
   J. Stückrath, T. Rose, and J. Unsleber
   
 * started run on 2025/06/07 at 03:27:52.303     

           -------------------------------------------------
          |                Calculation Setup                |
           -------------------------------------------------

          program call               : xtb Be2C4H6.xyz --gfn 2 --opt
          coordinate file            : Be2C4H6.xyz
          omp threads                :                    16

   ID    Z sym.   atoms
    1    4 Be     1, 2
    2    6 C      3-6
    3    1 H      7-12

molecular fragmentation (1/2 indicates fragments):
122222222222
# atoms in fragment 1/2:     1    11
 fragment masses (1/2) :        9.01       63.10
CMA distance (Bohr)    :   8.373
constraining FC (au)   :  0.0500

           -------------------------------------------------
          |                 G F N 2 - x T B                 |
           -------------------------------------------------

        Reference                      10.1021/acs.jctc.8b01176
      * Hamiltonian:
        H0-scaling (s, p, d)           1.850000    2.230000    2.230000
        zeta-weighting                 0.500000
      * Dispersion:
        s8                             2.700000
        a1                             0.520000
        a2                             5.000000
        s9                             5.000000
      * Repulsion:
        kExp                           1.500000    1.000000
        rExp                           1.000000
      * Coulomb:
        alpha                          2.000000
        third order                    shell-resolved
        anisotropic                    true
        a3                             3.000000
        a5                             4.000000
        cn-shift                       1.200000
        cn-exp                         4.000000
        max-rad                        5.000000


          ...................................................
          :                      SETUP                      :
          :.................................................:
          :  # basis functions                  30          :
          :  # atomic orbitals                  30          :
          :  # shells                           18          :
          :  # electrons                        26          :
          :  max. iterations                   250          :
          :  Hamiltonian                  GFN2-xTB          :
          :  restarted?                      false          :
          :  GBSA solvation                  false          :
          :  PC potential                    false          :
          :  electronic temp.          300.0000000     K    :
          :  accuracy                    1.0000000          :
          :  -> integral cutoff          0.2500000E+02      :
          :  -> integral neglect         0.1000000E-07      :
          :  -> SCF convergence          0.1000000E-05 Eh   :
          :  -> wf. convergence          0.1000000E-03 e    :
          :  Broyden damping             0.4000000          :
          ...................................................

 iter      E             dE          RMSdq      gap      omega  full diag
   1     25.1743682  0.251744E+02  0.287E+01    0.69       0.0  T
   2     -4.4815258 -0.296559E+02  0.190E+01    0.20       1.0  T
   3     -7.1275832 -0.264606E+01  0.145E+01    0.73       1.0  T
   4     -6.3176773  0.809906E+00  0.127E+01    0.54       1.0  T
   5     -7.3436894 -0.102601E+01  0.113E+01    0.91       1.0  T
   6     -7.1049340  0.238755E+00  0.115E+01    0.86       1.0  T
   7     20.8974884  0.280024E+02  0.229E+01    0.83       1.0  T
   8    -10.6011111 -0.314986E+02  0.139E+01    0.42       1.0  T
   9    -10.5038620  0.972491E-01  0.127E+01    0.24       1.0  T
  10    -10.3169788  0.186883E+00  0.164E+01    0.45       1.0  T
  11    -10.5018628 -0.184884E+00  0.160E+01    0.40       1.0  T
  12    -10.0182570  0.483606E+00  0.150E+01    0.32       1.0  T
  13     -9.9428604  0.753966E-01  0.147E+01    0.26       1.0  T
  14    -11.3391554 -0.139629E+01  0.162E+01    0.37       1.0  T
  15    -11.4701479 -0.130993E+00  0.176E+01    0.61       1.0  T
  16    -11.5326465 -0.624986E-01  0.175E+01    0.62       1.0  T
  17    -11.5312200  0.142651E-02  0.174E+01    0.59       1.0  T
  18    -11.3834146  0.147805E+00  0.127E+01    0.57       1.0  T
  19    -11.6030295 -0.219615E+00  0.138E+01    0.56       1.0  T
  20    -10.3353611  0.126767E+01  0.169E+01    0.08       1.0  T
  21    -10.2571501  0.782109E-01  0.170E+01    0.07       1.0  T
  22     -9.3239886  0.933162E+00  0.178E+01    0.09       1.0  T
  23     -9.2790050  0.449836E-01  0.179E+01    0.09       1.0  T
  24     -9.9265179 -0.647513E+00  0.168E+01    0.08       1.0  T
  25    -10.2003181 -0.273800E+00  0.169E+01    0.07       1.0  T
  26     -5.8949541  0.430536E+01  0.184E+01    0.14       1.0  T
  27     -9.5818985 -0.368694E+01  0.172E+01    0.06       1.0  T
  28     -9.6201832 -0.382847E-01  0.171E+01    0.06       1.0  T
  29     -8.9734127  0.646771E+00  0.177E+01    0.06       1.0  T
  30     -8.4245055  0.548907E+00  0.180E+01    0.10       1.0  T
  31    -11.1498088 -0.272530E+01  0.144E+01    0.17       1.0  T
  32    -11.7895771 -0.639768E+00  0.143E+01    0.41       1.0  T
  33    -11.8072399 -0.176629E-01  0.139E+01    0.40       1.0  T
  34    -11.7809315  0.263085E-01  0.145E+01    0.45       1.0  T
  35     -9.6197456  0.216119E+01  0.142E+01    0.16       1.0  T
  36     -9.0424303  0.577315E+00  0.142E+01    0.12       1.0  T
  37     -8.8977222  0.144708E+00  0.145E+01    0.10       1.0  T
  38     -8.0968116  0.800911E+00  0.155E+01    0.09       1.0  T
  39     -8.1782121 -0.814006E-01  0.153E+01    0.09       1.0  T
  40     -8.0561492  0.122063E+00  0.152E+01    0.10       1.0  T
  41     -8.5916748 -0.535526E+00  0.146E+01    0.11       1.0  T
  42     -6.5853510  0.200632E+01  0.179E+01    0.09       1.0  T
  43     -8.2529100 -0.166756E+01  0.153E+01    0.09       1.0  T
  44     -8.4045028 -0.151593E+00  0.152E+01    0.09       1.0  T
  45     -7.1538264  0.125068E+01  0.174E+01    0.13       1.0  T
  46     -7.2673425 -0.113516E+00  0.173E+01    0.14       1.0  T
  47    -10.2160364 -0.294869E+01  0.138E+01    0.16       1.0  T
  48    -11.3241127 -0.110808E+01  0.126E+01    0.21       1.0  T
  49     -9.8648316  0.145928E+01  0.161E+01    0.15       1.0  T
  50     -9.5256599  0.339172E+00  0.167E+01    0.16       1.0  T
  51     -9.6911707 -0.165511E+00  0.161E+01    0.16       1.0  T
  52    -10.6370866 -0.945916E+00  0.129E+01    0.15       1.0  T
  53     -9.9289578  0.708129E+00  0.137E+01    0.14       1.0  T
  54    -10.3470114 -0.418054E+00  0.125E+01    0.13       1.0  T
  55     -9.4137514  0.933260E+00  0.143E+01    0.13       1.0  T
  56    -10.1606087 -0.746857E+00  0.130E+01    0.12       1.0  T
  57     -9.8416318  0.318977E+00  0.137E+01    0.12       1.0  T
  58     -9.8919223 -0.502905E-01  0.136E+01    0.12       1.0  T
  59    -10.6346897 -0.742767E+00  0.123E+01    0.13       1.0  T
  60    -11.0200743 -0.385385E+00  0.118E+01    0.16       1.0  T
  61    -11.2240039 -0.203930E+00  0.116E+01    0.19       1.0  T
  62    -11.2343959 -0.103920E-01  0.115E+01    0.19       1.0  T
  63    -11.2403900 -0.599414E-02  0.115E+01    0.18       1.0  T
  64    -11.4228893 -0.182499E+00  0.115E+01    0.21       1.0  T
  65    -11.3923097  0.305797E-01  0.115E+01    0.21       1.0  T
  66    -11.5537298 -0.161420E+00  0.114E+01    0.21       1.0  T
  67    -11.4283539  0.125376E+00  0.113E+01    0.21       1.0  T
  68    -10.4186839  0.100967E+01  0.120E+01    0.17       1.0  T
  69    -10.3420942  0.765898E-01  0.122E+01    0.17       1.0  T
  70    -10.1899315  0.152163E+00  0.122E+01    0.16       1.0  T
  71    -10.1959377 -0.600628E-02  0.122E+01    0.16       1.0  T
  72    -10.9777042 -0.781766E+00  0.124E+01    0.23       1.0  T
  73    -11.3396661 -0.361962E+00  0.126E+01    0.21       1.0  T
  74    -11.2352195  0.104447E+00  0.126E+01    0.21       1.0  T
  75    -11.2100334  0.251861E-01  0.127E+01    0.21       1.0  T
  76    -11.2748198 -0.647864E-01  0.127E+01    0.21       1.0  T
  77    -11.3033786 -0.285588E-01  0.128E+01    0.20       1.0  T
  78    -11.4826320 -0.179253E+00  0.133E+01    0.19       1.0  T
  79    -11.5846548 -0.102023E+00  0.137E+01    0.19       1.0  T
  80    -11.6122590 -0.276042E-01  0.140E+01    0.18       1.0  T
  81    -11.6206600 -0.840104E-02  0.141E+01    0.18       1.0  T
  82    -11.6083555  0.123045E-01  0.142E+01    0.18       1.0  T
  83    -11.6239733 -0.156178E-01  0.142E+01    0.18       1.0  T
  84    -11.5879332  0.360401E-01  0.142E+01    0.18       1.0  T
  85    -11.6308593 -0.429262E-01  0.150E+01    0.17       1.0  T
  86    -11.6342750 -0.341561E-02  0.154E+01    0.16       1.0  T
  87    -11.6537176 -0.194427E-01  0.153E+01    0.16       1.0  T
  88    -11.6408984  0.128192E-01  0.153E+01    0.16       1.0  T
  89    -11.6423076 -0.140923E-02  0.155E+01    0.16       1.0  T
  90    -11.6649950 -0.226873E-01  0.160E+01    0.16       1.0  T
  91    -11.6650582 -0.632419E-04  0.160E+01    0.16       1.0  T
  92    -11.6984479 -0.333897E-01  0.154E+01    0.17       1.0  T
  93    -11.7508389 -0.523909E-01  0.145E+01    0.19       1.0  T
  94    -11.7874458 -0.366069E-01  0.138E+01    0.21       1.0  T
  95    -11.7814778  0.596794E-02  0.132E+01    0.23       1.0  T
  96    -11.8052665 -0.237886E-01  0.109E+01    0.27       1.0  T
  97    -11.8228568 -0.175903E-01  0.980E+00    0.28       1.0  T
  98    -11.8098984  0.129583E-01  0.931E+00    0.28       1.0  T
  99    -11.7692681  0.406303E-01  0.820E+00    0.29       1.0  T
 100    -11.6293031  0.139965E+00  0.752E+00    0.31       1.0  T
 101    -11.6760233 -0.467202E-01  0.733E+00    0.30       1.0  T
 102    -11.7783899 -0.102367E+00  0.690E+00    0.29       1.0  T
 103    -11.8052356 -0.268457E-01  0.682E+00    0.29       1.0  T
 104    -11.2050635  0.600172E+00  0.821E+00    0.31       1.0  T
 105    -10.7504943  0.454569E+00  0.981E+00    0.34       1.0  T
 106    -10.9613579 -0.210864E+00  0.923E+00    0.32       1.0  T
 107    -11.1423896 -0.181032E+00  0.863E+00    0.30       1.0  T
 108    -11.3751966 -0.232807E+00  0.786E+00    0.28       1.0  T
 109    -11.7561732 -0.380977E+00  0.688E+00    0.28       1.0  T
 110    -11.7517849  0.438829E-02  0.689E+00    0.29       1.0  T
 111    -11.7793619 -0.275770E-01  0.693E+00    0.29       1.0  T
 112    -11.7809710 -0.160914E-02  0.693E+00    0.29       1.0  T
 113    -11.7842783 -0.330728E-02  0.693E+00    0.29       1.0  T
 114    -11.7953262 -0.110479E-01  0.697E+00    0.29       1.0  T
 115    -11.7994310 -0.410481E-02  0.691E+00    0.30       1.0  T
 116    -11.6501967  0.149234E+00  0.636E+00    0.25       1.0  T
 117    -11.6386384  0.115583E-01  0.637E+00    0.25       1.0  T
 118    -11.4816254  0.157013E+00  0.623E+00    0.25       1.0  T
 119    -11.4223148  0.593106E-01  0.630E+00    0.25       1.0  T
 120    -11.4974313 -0.751164E-01  0.619E+00    0.25       1.0  T
 121    -11.5785108 -0.810796E-01  0.608E+00    0.24       1.0  T
 122    -11.7286964 -0.150186E+00  0.620E+00    0.24       1.0  T
 123    -11.7844059 -0.557095E-01  0.640E+00    0.23       1.0  T
 124    -11.7819539  0.245208E-02  0.643E+00    0.22       1.0  T
 125    -11.7360489  0.459049E-01  0.620E+00    0.23       1.0  T
 126    -11.7022593  0.337897E-01  0.613E+00    0.23       1.0  T
 127    -11.7122351 -0.997576E-02  0.616E+00    0.23       1.0  T
 128    -11.7373641 -0.251291E-01  0.621E+00    0.23       1.0  T
 129    -11.8225800 -0.852159E-01  0.645E+00    0.23       1.0  T
 130    -11.8629961 -0.404161E-01  0.651E+00    0.23       1.0  T
 131    -11.8818907 -0.188946E-01  0.633E+00    0.21       1.0  T
 132    -11.8878191 -0.592840E-02  0.606E+00    0.17       1.0  T
 133    -11.8070784  0.807407E-01  0.623E+00    0.11       1.0  T
 134    -11.7773091  0.297693E-01  0.631E+00    0.10       1.0  T
 135    -11.7103562  0.669529E-01  0.710E+00    0.10       1.0  T
 136    -11.6556005  0.547557E-01  0.725E+00    0.08       1.0  T
 137    -11.6552475  0.353003E-03  0.725E+00    0.08       1.0  T
 138    -11.7524193 -0.971718E-01  0.670E+00    0.10       1.0  T
 139    -11.7954052 -0.429859E-01  0.652E+00    0.13       1.0  T
 140    -11.8009743 -0.556915E-02  0.634E+00    0.14       1.0  T
 141    -11.8273351 -0.263608E-01  0.597E+00    0.16       1.0  T
 142    -11.8742506 -0.469155E-01  0.553E+00    0.18       1.0  T
 143    -11.8801538 -0.590318E-02  0.556E+00    0.20       1.0  T
 144    -11.8667304  0.134234E-01  0.566E+00    0.20       1.0  T
 145    -11.8636762  0.305423E-02  0.569E+00    0.20       1.0  T
 146    -11.8635554  0.120819E-03  0.567E+00    0.20       1.0  T
 147    -11.8601477  0.340771E-02  0.565E+00    0.20       1.0  T
 148    -11.8622576 -0.210989E-02  0.567E+00    0.20       1.0  T
 149    -11.8628227 -0.565183E-03  0.571E+00    0.20       1.0  T
 150    -11.8624255  0.397286E-03  0.573E+00    0.20       1.0  T
 151    -11.8624340 -0.853567E-05  0.572E+00    0.20       1.0  T
 152    -11.8622242  0.209834E-03  0.572E+00    0.20       1.0  T
 153    -11.8617250  0.499199E-03  0.571E+00    0.20       1.0  T
 154    -11.8620069 -0.281910E-03  0.571E+00    0.20       1.0  T
 155    -11.8651559 -0.314903E-02  0.570E+00    0.20       1.0  T
 156    -11.8711205 -0.596458E-02  0.564E+00    0.19       1.0  T
 157    -11.8730446 -0.192417E-02  0.555E+00    0.18       1.0  T
 158    -11.8697280  0.331664E-02  0.551E+00    0.17       1.0  T
 159    -11.8688387  0.889331E-03  0.550E+00    0.17       1.0  T
 160    -11.8703315 -0.149279E-02  0.552E+00    0.17       1.0  T
 161    -11.8727946 -0.246312E-02  0.556E+00    0.18       1.0  T
 162    -11.8732998 -0.505206E-03  0.563E+00    0.19       1.0  T
 163    -11.8714669  0.183290E-02  0.568E+00    0.20       1.0  T
 164    -11.8706461  0.820809E-03  0.569E+00    0.20       1.0  T
 165    -11.8698293  0.816821E-03  0.571E+00    0.21       1.0  T
 166    -11.8693053  0.523914E-03  0.571E+00    0.21       1.0  T
 167    -11.8697629 -0.457587E-03  0.569E+00    0.20       1.0  T
 168    -11.8606795  0.908343E-02  0.560E+00    0.17       1.0  T
 169    -11.8575557  0.312384E-02  0.558E+00    0.17       1.0  T
 170    -11.8614167 -0.386104E-02  0.561E+00    0.18       1.0  T
 171    -11.8635381 -0.212144E-02  0.566E+00    0.19       1.0  T
 172    -11.8663560 -0.281784E-02  0.550E+00    0.17       1.0  T
 173    -11.8432563  0.230997E-01  0.520E+00    0.13       1.0  T
 174    -11.8280670  0.151894E-01  0.499E+00    0.11       1.0  T
 175    -11.8234659  0.460110E-02  0.488E+00    0.10       1.0  T
 176    -11.8000353  0.234305E-01  0.493E+00    0.10       1.0  T
 177    -11.7961399  0.389539E-02  0.501E+00    0.10       1.0  T
 178    -11.8034940 -0.735410E-02  0.488E+00    0.09       1.0  T
 179    -11.7950254  0.846867E-02  0.481E+00    0.09       1.0  T
 180    -11.8213706 -0.263452E-01  0.422E+00    0.08       1.0  T
 181    -11.8649293 -0.435587E-01  0.332E+00    0.07       1.0  T
 182    -11.8500993  0.148300E-01  0.310E+00    0.06       1.0  T
 183    -11.8635434 -0.134441E-01  0.248E+00    0.06       1.0  T
 184    -11.8908405 -0.272971E-01  0.192E+00    0.06       1.0  T
 185    -11.9134801 -0.226396E-01  0.160E+00    0.07       1.0  T
 186    -11.9256290 -0.121489E-01  0.159E+00    0.08       1.0  T
 187    -11.9310216 -0.539261E-02  0.152E+00    0.08       1.0  T
 188    -11.9322846 -0.126296E-02  0.148E+00    0.09       1.0  T
 189    -11.9258275  0.645712E-02  0.138E+00    0.09       1.0  T
 190    -11.9225189  0.330852E-02  0.143E+00    0.08       1.0  T
 191    -11.9211710  0.134797E-02  0.140E+00    0.09       1.0  T
 192    -11.9197555  0.141546E-02  0.139E+00    0.09       1.0  T
 193    -11.9209559 -0.120038E-02  0.134E+00    0.09       1.0  T
 194    -11.9179859  0.296994E-02  0.135E+00    0.09       1.0  T
 195    -11.9167124  0.127359E-02  0.136E+00    0.09       1.0  T
 196    -11.9183149 -0.160258E-02  0.134E+00    0.09       1.0  T
 197    -11.9221224 -0.380744E-02  0.128E+00    0.09       1.0  T
 198    -11.9240473 -0.192490E-02  0.125E+00    0.09       1.0  T
 199    -11.9236067  0.440539E-03  0.126E+00    0.09       1.0  T
 200    -11.9233838  0.222962E-03  0.126E+00    0.09       1.0  T
 201    -11.9253430 -0.195925E-02  0.123E+00    0.09       1.0  T
 202    -11.9304453 -0.510224E-02  0.114E+00    0.10       1.0  T
 203    -11.9344938 -0.404856E-02  0.107E+00    0.10       1.0  T
 204    -11.9369537 -0.245990E-02  0.102E+00    0.10       1.0  T
 205    -11.9393045 -0.235082E-02  0.967E-01    0.11       1.0  T
 206    -11.9421949 -0.289033E-02  0.887E-01    0.11       1.0  T
 207    -11.9448768 -0.268195E-02  0.795E-01    0.12       1.0  T
 208    -11.9465408 -0.166397E-02  0.715E-01    0.13       1.0  T
 209    -11.9472928 -0.752022E-03  0.647E-01    0.13       1.0  T
 210    -11.9476378 -0.345012E-03  0.575E-01    0.14       1.0  T
 211    -11.9478505 -0.212639E-03  0.493E-01    0.14       1.0  T
 212    -11.9479871 -0.136629E-03  0.407E-01    0.14       1.0  T
 213    -11.9480274 -0.402801E-04  0.325E-01    0.15       1.0  T
 214    -11.9480059  0.215064E-04  0.257E-01    0.15       1.0  T
 215    -11.9480161 -0.102470E-04  0.202E-01    0.15       1.0  T
 216    -11.9480684 -0.522681E-04  0.152E-01    0.15       1.0  T
 217    -11.9481111 -0.427544E-04  0.111E-01    0.15       1.0  T
 218    -11.9481230 -0.118367E-04  0.866E-02    0.15       1.0  T
 219    -11.9481214  0.161199E-05  0.718E-02    0.15       1.0  T
 220    -11.9481197  0.170173E-05  0.577E-02    0.15       1.0  T
 221    -11.9481187  0.983863E-06  0.457E-02    0.15       1.0  T
 222    -11.9481166  0.206119E-05  0.406E-02    0.15       1.0  T
 223    -11.9481131  0.353891E-05  0.427E-02    0.15       1.0  T
 224    -11.9481125  0.561438E-06  0.439E-02    0.15       1.0  T
 225    -11.9481184 -0.585048E-05  0.386E-02    0.15       1.0  T
 226    -11.9481244 -0.601495E-05  0.281E-02    0.15       1.0  T
 227    -11.9481262 -0.181274E-05  0.199E-02    0.15       1.4  T
 228    -11.9481265 -0.297594E-06  0.167E-02    0.15       1.7  T
 229    -11.9481265 -0.454415E-08  0.152E-02    0.15       1.9  T
 230    -11.9481267 -0.182539E-06  0.132E-02    0.15       2.2  T
 231    -11.9481269 -0.205086E-06  0.945E-03    0.15       3.1  T
 232    -11.9481269 -0.373116E-07  0.459E-03    0.15       6.3  T
 233    -11.9481270 -0.487078E-07  0.308E-03    0.15       9.4  T
 234    -11.9481270 -0.363727E-07  0.236E-03    0.15      12.2  T
 235    -11.9481270 -0.130180E-07  0.599E-04    0.15      48.2  T
 236    -11.9481270  0.466551E-08  0.867E-04    0.15      33.3  T

   *** convergence criteria satisfied after 236 iterations ***

         #    Occupation            Energy/Eh            Energy/eV
      -------------------------------------------------------------
         1        2.0000           -0.5908003             -16.0765
       ...           ...                  ...                  ...
         7        2.0000           -0.3836641             -10.4400
         8        2.0000           -0.3728032             -10.1445
         9        2.0000           -0.3374082              -9.1813
        10        2.0000           -0.3219164              -8.7598
        11        2.0000           -0.3171356              -8.6297
        12        2.0000           -0.3087388              -8.4012
        13        1.8897           -0.2846206              -7.7449 (HOMO)
        14        0.1103           -0.2792227              -7.5980 (LUMO)
        15        0.0000           -0.2680743              -7.2947
        16                         -0.2552988              -6.9470
        17                         -0.2489074              -6.7731
        18                         -0.2408788              -6.5546
       ...                                ...                  ...
        30                          0.7687076              20.9176
      -------------------------------------------------------------
                  HL-Gap            0.0053979 Eh            0.1469 eV
             Fermi-level           -0.2819217 Eh           -7.6715 eV

 SCC (total)                   0 d,  0 h,  0 min,  0.193 sec
 SCC setup                      ...        0 min,  0.000 sec (  0.046%)
 Dispersion                     ...        0 min,  0.000 sec (  0.059%)
 classical contributions        ...        0 min,  0.000 sec (  0.038%)
 integral evaluation            ...        0 min,  0.000 sec (  0.081%)
 iterations                     ...        0 min,  0.191 sec ( 99.279%)
 molecular gradient             ...        0 min,  0.001 sec (  0.442%)
 printout                       ...        0 min,  0.000 sec (  0.046%)

         :::::::::::::::::::::::::::::::::::::::::::::::::::::
         ::                     SUMMARY                     ::
         :::::::::::::::::::::::::::::::::::::::::::::::::::::
         :: total energy             -11.862297660727 Eh    ::
         :: gradient norm              0.281972300033 Eh/a0 ::
         :: HOMO-LUMO gap              0.146885389381 eV    ::
         ::.................................................::
         :: SCC energy               -11.948127018911 Eh    ::
         :: -> isotropic ES           -0.092728917901 Eh    ::
         :: -> anisotropic ES          0.005722543595 Eh    ::
         :: -> anisotropic XC         -0.018854775770 Eh    ::
         :: -> dispersion             -0.010189737795 Eh    ::
         :: repulsion energy           0.085798558820 Eh    ::
         :: add. restraining           0.000000000000 Eh    ::
         :: total charge               0.000000000000 e     ::
         :::::::::::::::::::::::::::::::::::::::::::::::::::::

      ----------------------------------------------------------- 
     |                   =====================                   |
     |                        A N C O P T                        |
     |                   =====================                   |
     |               Approximate Normal Coordinate               |
     |                Rational Function Optimizer                |
      ----------------------------------------------------------- 

          ...................................................
          :                      SETUP                      :
          :.................................................:
          :   optimization level            normal          :
          :   max. optcycles                   200          :
          :   ANC micro-cycles                  20          :
          :   degrees of freedom                30          :
          :.................................................:
          :   RF solver                   davidson          :
          :   write xtbopt.log                true          :
          :   linear?                        false          :
          :   energy convergence         0.5000000E-05 Eh   :
          :   grad. convergence          0.1000000E-02 Eh/α :
          :   maximium RF displ.         1.0000000          :
          :   Hlow (freq-cutoff)         0.1000000E-01      :
          :   Hmax (freq-cutoff)         5.0000000          :
          :   S6 in model hess.         20.0000000          :
          ...................................................

generating ANC from model Hessian ...
Using Lindh-Hessian (1995)
 Shifting diagonal of input Hessian by    1.5427363571612989E-002
 Lowest  eigenvalues of input Hessian
    0.010000    0.013282    0.014868    0.015200    0.015349    0.000000
    0.000000    0.000000    0.000000    0.000000    0.000000    0.015454
    0.015562    0.015816    0.016435    0.016723    0.017164    0.017808
 Highest eigenvalues
    0.236188    0.257937    0.272556    0.326554    0.382233    0.416292


........................................................................
.............................. CYCLE    1 ..............................
........................................................................
   1    -11.9481270 -0.119481E+02  0.601E-04    0.15       0.0  T
   2    -11.9481244  0.265107E-05  0.192E-02    0.15       1.5  T
   3    -11.9481266 -0.221935E-05  0.798E-03    0.15       3.6  T
   4    -11.9481266  0.279811E-07  0.808E-03    0.15       3.6  T
   5    -11.9481268 -0.260105E-06  0.557E-03    0.15       5.2  T
   6    -11.9481270 -0.155686E-06  0.262E-03    0.15      11.0  T
   7    -11.9481270 -0.361732E-07  0.134E-03    0.15      21.6  T
   8    -11.9481270 -0.138837E-07  0.755E-05    0.15     382.2  T
   9    -11.9481270  0.191923E-09  0.154E-04    0.15     188.0  T
     SCC iter.                  ...        0 min,  0.004 sec
     gradient                   ...        0 min,  0.001 sec
 * total energy  :   -11.8622977 Eh     change       -0.9921221E-08 Eh
   gradient norm :     0.2819598 Eh/α   predicted     0.0000000E+00 (-100.00%)
   displ. norm   :     0.7447256 α      lambda       -0.2052353E+00
   maximum displ.:     0.5084854 α      in ANC's #24, #22, #23, ...

........................................................................
.............................. CYCLE    2 ..............................
........................................................................
   1    -12.1119600 -0.121120E+02  0.164E+00    0.18       0.0  T
   2    -12.0110236  0.100936E+00  0.346E+00    0.27       1.0  T
   3    -11.4573250  0.553699E+00  0.101E+01    0.24       1.0  T
   4    -12.0902218 -0.632897E+00  0.196E+00    0.15       1.0  T
   5    -11.4507941  0.639428E+00  0.937E+00    0.25       1.0  T
   6    -12.0783905 -0.627596E+00  0.172E+00    0.22       1.0  T
   7    -12.1054088 -0.270183E-01  0.168E+00    0.20       1.0  T
   8    -12.1209853 -0.155765E-01  0.878E-01    0.18       1.0  T
   9    -12.1256556 -0.467032E-02  0.494E-01    0.16       1.0  T
  10    -12.1196388  0.601681E-02  0.101E+00    0.15       1.0  T
  11    -12.1220307 -0.239192E-02  0.878E-01    0.15       1.0  T
  12    -12.1242620 -0.223129E-02  0.738E-01    0.15       1.0  T
  13    -12.1281734 -0.391140E-02  0.160E-01    0.16       1.0  T
  14    -12.1282947 -0.121283E-03  0.982E-02    0.16       1.0  T
  15    -12.1278429  0.451826E-03  0.267E-01    0.16       1.0  T
  16    -12.1281115 -0.268652E-03  0.185E-01    0.16       1.0  T
  17    -12.1282780 -0.166445E-03  0.101E-01    0.16       1.0  T
  18    -12.1283384 -0.604103E-04  0.339E-02    0.16       1.0  T
  19    -12.1283419 -0.352972E-05  0.191E-02    0.16       1.5  T
  20    -12.1283432 -0.126678E-05  0.134E-02    0.16       2.2  T
  21    -12.1283444 -0.119548E-05  0.436E-03    0.16       6.6  T
  22    -12.1283445 -0.114951E-06  0.179E-03    0.16      16.1  T
  23    -12.1283445 -0.146440E-07  0.980E-04    0.16      29.5  T
  24    -12.1283445 -0.622720E-08  0.876E-05    0.16     329.4  T
     SCC iter.                  ...        0 min,  0.030 sec
     gradient                   ...        0 min,  0.001 sec
 * total energy  :   -12.0582173 Eh     change       -0.1959196E+00 Eh
   gradient norm :     0.2838995 Eh/α   predicted    -0.1595310E+00 ( -18.57%)
   displ. norm   :     0.9820424 α      lambda       -0.2737506E+00
   maximum displ.:     0.7863963 α      in ANC's #24, #22, #27, ...

........................................................................
.............................. CYCLE    3 ..............................
........................................................................
   1    -12.2055994 -0.122056E+02  0.663E+00    0.34       0.0  T
   2    -11.1940072  0.101159E+01  0.121E+01    0.79       1.0  T
   3    -12.1930974 -0.999090E+00  0.642E+00    1.00       1.0  T
   4    -12.0549808  0.138117E+00  0.628E+00    0.36       1.0  T
   5    -12.2728539 -0.217873E+00  0.518E+00    0.58       1.0  T
   6    -12.2431663  0.296876E-01  0.534E+00    0.79       1.0  T
   7    -12.3897746 -0.146608E+00  0.310E+00    0.38       1.0  T
   8    -12.2665651  0.123209E+00  0.597E+00    0.26       1.0  T
   9    -12.3215741 -0.550089E-01  0.492E+00    0.28       1.0  T
  10    -12.3265185 -0.494448E-02  0.484E+00    0.28       1.0  T
  11    -12.4299624 -0.103444E+00  0.262E+00    0.27       1.0  T
  12    -12.4641863 -0.342240E-01  0.125E+00    0.26       1.0  T
  13    -12.4675924 -0.340604E-02  0.113E+00    0.29       1.0  T
  14    -12.3869301  0.806623E-01  0.369E+00    0.37       1.0  T
  15    -12.4005469 -0.136168E-01  0.341E+00    0.36       1.0  T
  16    -12.4152798 -0.147329E-01  0.303E+00    0.34       1.0  T
  17    -12.4370837 -0.218039E-01  0.241E+00    0.32       1.0  T
  18    -12.4448531 -0.776940E-02  0.213E+00    0.31       1.0  T
  19    -12.4443311  0.521946E-03  0.215E+00    0.31       1.0  T
  20    -12.4526718 -0.834070E-02  0.181E+00    0.30       1.0  T
  21    -12.4692116 -0.165398E-01  0.828E-01    0.28       1.0  T
  22    -12.4720950 -0.288332E-02  0.486E-01    0.27       1.0  T
  23    -12.4732814 -0.118645E-02  0.231E-01    0.27       1.0  T
  24    -12.4735825 -0.301081E-03  0.848E-02    0.27       1.0  T
  25    -12.4736131 -0.306209E-04  0.515E-02    0.27       1.0  T
  26    -12.4736300 -0.168773E-04  0.158E-02    0.27       1.8  T
  27    -12.4736311 -0.109736E-05  0.102E-02    0.27       2.8  T
  28    -12.4736316 -0.500920E-06  0.601E-03    0.27       4.8  T
  29    -12.4736318 -0.225517E-06  0.782E-04    0.27      36.9  T
  30    -12.4736318  0.980849E-08  0.143E-03    0.27      20.2  T
  31    -12.4736318 -0.124168E-07  0.287E-04    0.27     100.7  T
     SCC iter.                  ...        0 min,  0.011 sec
     gradient                   ...        0 min,  0.001 sec
 * total energy  :   -12.2758303 Eh     change       -0.2176130E+00 Eh
   gradient norm :     0.1454432 Eh/α   predicted    -0.2688788E+00 (  23.56%)
   displ. norm   :     0.7294375 α      lambda       -0.9194326E-01
   maximum displ.:     0.3146097 α      in ANC's #24, #20, #2, ...

........................................................................
.............................. CYCLE    4 ..............................
........................................................................
   1    -12.4307888 -0.124308E+02  0.580E+00    0.36       0.0  T
   2      8.5248545  0.209556E+02  0.195E+01    1.57       1.0  T
   3    -12.2660190 -0.207909E+02  0.491E+00    0.48       1.0  T
   4    -10.2674749  0.199854E+01  0.170E+01    0.20       1.0  T
   5    -12.4562208 -0.218875E+01  0.422E+00    0.60       1.0  T
   6    -12.3516517  0.104569E+00  0.369E+00    0.23       1.0  T
   7    -12.4932218 -0.141570E+00  0.263E+00    0.41       1.0  T
   8    -12.5671948 -0.739730E-01  0.124E+00    0.23       1.0  T
   9    -12.5485702  0.186246E-01  0.156E+00    0.26       1.0  T
  10    -12.5530855 -0.451521E-02  0.142E+00    0.26       1.0  T
  11    -12.5426010  0.104844E-01  0.147E+00    0.29       1.0  T
  12    -12.6073918 -0.647908E-01  0.212E+00    0.14       1.0  T
  13    -12.6072837  0.108128E-03  0.202E+00    0.15       1.0  T
  14    -12.6054394  0.184427E-02  0.242E+00    0.14       1.0  T
  15    -12.6058351 -0.395680E-03  0.225E+00    0.14       1.0  T
  16    -12.6028960  0.293904E-02  0.229E+00    0.13       1.0  T
  17    -12.6062946 -0.339857E-02  0.157E+00    0.14       1.0  T
  18    -12.6077318 -0.143723E-02  0.106E+00    0.14       1.0  T
  19    -12.6080402 -0.308386E-03  0.808E-01    0.14       1.0  T
  20    -12.6084094 -0.369189E-03  0.409E-01    0.14       1.0  T
  21    -12.6084250 -0.156026E-04  0.314E-01    0.14       1.0  T
  22    -12.6084614 -0.363923E-04  0.301E-01    0.14       1.0  T
  23    -12.6084799 -0.184900E-04  0.179E-01    0.14       1.0  T
  24    -12.6084781  0.185200E-05  0.128E-01    0.14       1.0  T
  25    -12.6084878 -0.971968E-05  0.913E-02    0.14       1.0  T
  26    -12.6084919 -0.413815E-05  0.621E-02    0.13       1.0  T
  27    -12.6084914  0.538732E-06  0.491E-02    0.13       1.0  T
  28    -12.6084921 -0.742835E-06  0.310E-02    0.13       1.0  T
  29    -12.6084930 -0.917029E-06  0.139E-02    0.13       2.1  T
  30    -12.6084933 -0.296682E-06  0.308E-03    0.13       9.4  T
  31    -12.6084934 -0.260931E-07  0.966E-04    0.13      29.9  T
  32    -12.6084934 -0.732175E-09  0.430E-04    0.13      67.2  T
     SCC iter.                  ...        0 min,  0.006 sec
     gradient                   ...        0 min,  0.001 sec
 * total energy  :   -12.2828640 Eh     change       -0.7033676E-02 Eh
   gradient norm :     0.4262224 Eh/α   predicted    -0.7043216E-01 ( 901.36%)
   displ. norm   :     0.5181413 α      lambda       -0.1464397E+00
   maximum displ.:     0.2316068 α      in ANC's #20, #12, #2, ...

........................................................................
.............................. CYCLE    5 ..............................
........................................................................
   1    -12.5282913 -0.125283E+02  0.285E+00    0.22       0.0  T
   2      5.0140306  0.175423E+02  0.173E+01    0.74       1.0  T
   3     -9.4513356 -0.144654E+02  0.143E+01    0.32       1.0  T
   4    -11.4596267 -0.200829E+01  0.125E+01    0.26       1.0  T
   5    -11.5511399 -0.915133E-01  0.117E+01    0.23       1.0  T
   6    -11.2992568  0.251883E+00  0.133E+01    0.29       1.0  T
   7    -12.1439694 -0.844713E+00  0.613E+00    0.06       1.0  T
   8    -11.9281811  0.215788E+00  0.782E+00    0.13       1.0  T
   9    -12.5176801 -0.589499E+00  0.686E+00    0.16       1.0  T
  10    -12.5408220 -0.231418E-01  0.490E+00    0.12       1.0  T
  11    -12.3584463  0.182376E+00  0.399E+00    0.09       1.0  T
  12    -12.5538470 -0.195401E+00  0.630E+00    0.17       1.0  T
  13    -12.5542445 -0.397500E-03  0.614E+00    0.17       1.0  T
  14    -12.5621412 -0.789663E-02  0.459E+00    0.16       1.0  T
  15    -12.5542239  0.791723E-02  0.463E+00    0.17       1.0  T
  16    -12.5546093 -0.385408E-03  0.428E+00    0.17       1.0  T
  17    -12.5581206 -0.351130E-02  0.339E+00    0.17       1.0  T
  18    -12.5608011 -0.268044E-02  0.289E+00    0.16       1.0  T
  19    -12.5652519 -0.445081E-02  0.135E+00    0.14       1.0  T
  20    -12.5649265  0.325401E-03  0.120E+00    0.14       1.0  T
  21    -12.5644716  0.454867E-03  0.862E-01    0.14       1.0  T
  22    -12.5653871 -0.915490E-03  0.958E-01    0.14       1.0  T
  23    -12.5655076 -0.120518E-03  0.956E-01    0.14       1.0  T
  24    -12.5652432  0.264421E-03  0.648E-01    0.14       1.0  T
  25    -12.5654004 -0.157145E-03  0.612E-01    0.14       1.0  T
  26    -12.5655127 -0.112293E-03  0.525E-01    0.14       1.0  T
  27    -12.5656140 -0.101310E-03  0.430E-01    0.14       1.0  T
  28    -12.5657590 -0.145062E-03  0.327E-01    0.14       1.0  T
  29    -12.5658949 -0.135892E-03  0.223E-01    0.15       1.0  T
  30    -12.5659730 -0.781226E-04  0.149E-01    0.15       1.0  T
  31    -12.5660254 -0.523693E-04  0.773E-02    0.15       1.0  T
  32    -12.5660393 -0.138803E-04  0.236E-02    0.15       1.2  T
  33    -12.5660394 -0.116938E-06  0.504E-03    0.15       5.7  T
  34    -12.5660396 -0.155299E-06  0.206E-03    0.15      14.0  T
  35    -12.5660396  0.780258E-08  0.289E-03    0.15      10.0  T
  36    -12.5660396 -0.389763E-07  0.559E-04    0.15      51.6  T
  37    -12.5660396 -0.700409E-08  0.539E-04    0.15      53.5  T
     SCC iter.                  ...        0 min,  0.007 sec
     gradient                   ...        0 min,  0.000 sec
 * total energy  :   -12.3386711 Eh     change       -0.5580715E-01 Eh
   gradient norm :     0.2247768 Eh/α   predicted    -0.9287724E-01 (  66.43%)
   displ. norm   :     0.7263508 α      lambda       -0.1243062E+00
   maximum displ.:     0.2924461 α      in ANC's #27, #12, #26, ...

........................................................................
.............................. CYCLE    6 ..............................
........................................................................
   1    -12.4983131 -0.124983E+02  0.494E+00    0.87       0.0  T
   2      8.2633108  0.207616E+02  0.192E+01    1.12       1.0  T
   3    -11.4420538 -0.197054E+02  0.121E+01    0.06       1.0  T
   4    -12.5392882 -0.109723E+01  0.358E+00    0.69       1.0  T
   5    -12.5191900  0.200982E-01  0.345E+00    0.31       1.0  T
   6    -12.5455967 -0.264066E-01  0.293E+00    0.51       1.0  T
   7    -12.5778559 -0.322592E-01  0.218E+00    0.43       1.0  T
   8    -12.5884674 -0.106115E-01  0.177E+00    0.38       1.0  T
   9    -12.5757469  0.127206E-01  0.190E+00    0.42       1.0  T
  10    -12.5995024 -0.237556E-01  0.115E+00    0.31       1.0  T
  11    -12.6006215 -0.111902E-02  0.110E+00    0.30       1.0  T
  12    -12.5911675  0.945399E-02  0.149E+00    0.35       1.0  T
  13    -12.6293054 -0.381379E-01  0.108E+00    0.15       1.0  T
  14    -12.6276387  0.166664E-02  0.749E-01    0.17       1.0  T
  15    -12.6159091  0.117297E-01  0.223E+00    0.11       1.0  T
  16    -12.6082522  0.765691E-02  0.252E+00    0.10       1.0  T
  17    -12.6047855  0.346664E-02  0.264E+00    0.10       1.0  T
  18    -12.5843321  0.204535E-01  0.325E+00    0.09       1.0  T
  19    -12.6120802 -0.277482E-01  0.231E+00    0.11       1.0  T
  20    -12.6178400 -0.575982E-02  0.198E+00    0.11       1.0  T
  21    -12.6209713 -0.313128E-02  0.156E+00    0.12       1.0  T
  22    -12.6241284 -0.315705E-02  0.125E+00    0.12       1.0  T
  23    -12.6252890 -0.116065E-02  0.114E+00    0.13       1.0  T
  24    -12.6286974 -0.340839E-02  0.640E-01    0.14       1.0  T
  25    -12.6289782 -0.280837E-03  0.558E-01    0.14       1.0  T
  26    -12.6293479 -0.369654E-03  0.417E-01    0.14       1.0  T
  27    -12.6294398 -0.918977E-04  0.347E-01    0.14       1.0  T
  28    -12.6295201 -0.803318E-04  0.250E-01    0.15       1.0  T
  29    -12.6295419 -0.217378E-04  0.155E-01    0.15       1.0  T
  30    -12.6295438 -0.190149E-05  0.570E-02    0.15       1.0  T
  31    -12.6295464 -0.259661E-05  0.763E-03    0.14       3.8  T
  32    -12.6295467 -0.357928E-06  0.247E-02    0.14       1.2  T
  33    -12.6295420  0.474086E-05  0.144E-02    0.14       2.0  T
  34    -12.6295455 -0.352742E-05  0.858E-03    0.14       3.4  T
  35    -12.6295472 -0.169147E-05  0.503E-03    0.14       5.7  T
  36    -12.6295475 -0.323541E-06  0.145E-03    0.14      19.9  T
  37    -12.6295474  0.862197E-07  0.402E-03    0.14       7.2  T
  38    -12.6295475 -0.108030E-06  0.106E-03    0.14      27.3  T
  39    -12.6295475 -0.122774E-07  0.298E-04    0.14      96.7  T
  40    -12.6295476 -0.109332E-08  0.167E-04    0.14     172.7  T
     SCC iter.                  ...        0 min,  0.007 sec
     gradient                   ...        0 min,  0.001 sec
 * total energy  :   -12.3200610 Eh     change        0.1861006E-01 Eh
   gradient norm :     0.4213936 Eh/α   predicted    -0.9494416E-01 (-610.18%)
   displ. norm   :     0.4332737 α      lambda       -0.1289000E+00
   maximum displ.:     0.2027205 α      in ANC's #25, #2, #20, ...

........................................................................
.............................. CYCLE    7 ..............................
........................................................................
   1    -12.5548797 -0.125549E+02  0.300E+00    0.30       0.0  T
   2      6.7536894  0.193086E+02  0.187E+01    0.75       1.0  T
   3      5.0351596 -0.171853E+01  0.176E+01    0.32       1.0  T
   4     -9.8941892 -0.149293E+02  0.157E+01    0.16       1.0  T
   5    -10.8460501 -0.951861E+00  0.143E+01    0.13       1.0  T
   6    -10.6744376  0.171613E+00  0.147E+01    0.14       1.0  T
   7    -10.5778977  0.965399E-01  0.146E+01    0.13       1.0  T
   8    -10.6683217 -0.904240E-01  0.144E+01    0.12       1.0  T
   9    -10.5792452  0.890765E-01  0.143E+01    0.13       1.0  T
  10    -10.8785528 -0.299308E+00  0.140E+01    0.12       1.0  T
  11    -10.8829724 -0.441958E-02  0.139E+01    0.12       1.0  T
  12    -10.7423205  0.140652E+00  0.142E+01    0.12       1.0  T
  13     -9.5761412  0.116618E+01  0.136E+01    0.16       1.0  T
  14    -10.5452220 -0.969081E+00  0.131E+01    0.16       1.0  T
  15     -8.5251842  0.202004E+01  0.127E+01    0.22       1.0  T
  16    -10.6167350 -0.209155E+01  0.127E+01    0.11       1.0  T
  17    -10.8371742 -0.220439E+00  0.122E+01    0.12       1.0  T
  18    -12.4896727 -0.165250E+01  0.529E+00    1.00       1.0  T
  19    -12.4641103  0.255625E-01  0.575E+00    1.51       1.0  T
  20    -12.4389964  0.251139E-01  0.586E+00    1.70       1.0  T
  21    -12.4536124 -0.146161E-01  0.740E+00    1.65       1.0  T
  22    -12.4575694 -0.395700E-02  0.432E+00    1.47       1.0  T
  23    -12.4926739 -0.351044E-01  0.393E+00    0.97       1.0  T
  24    -12.5254283 -0.327544E-01  0.412E+00    0.61       1.0  T
  25    -12.5815409 -0.561126E-01  0.318E+00    0.19       1.0  T
  26    -12.5803383  0.120254E-02  0.261E+00    0.13       1.0  T
  27    -10.9221219  0.165822E+01  0.109E+01    0.09       1.0  T
  28    -10.6850233  0.237099E+00  0.957E+00    0.10       1.0  T
  29    -10.5560316  0.128992E+00  0.882E+00    0.11       1.0  T
  30    -10.5711510 -0.151194E-01  0.862E+00    0.10       1.0  T
  31    -10.9867093 -0.415558E+00  0.806E+00    0.07       1.0  T
  32    -10.9448071  0.419022E-01  0.853E+00    0.07       1.0  T
  33    -10.9408772  0.392995E-02  0.850E+00    0.07       1.0  T
  34    -10.9579725 -0.170953E-01  0.848E+00    0.07       1.0  T
  35    -10.9423503  0.156222E-01  0.832E+00    0.07       1.0  T
  36    -10.9173801  0.249702E-01  0.762E+00    0.07       1.0  T
  37    -10.9014383  0.159418E-01  0.601E+00    0.07       1.0  T
  38    -10.9060095 -0.457120E-02  0.580E+00    0.06       1.0  T
  39    -10.9054006  0.608956E-03  0.595E+00    0.06       1.0  T
  40    -10.9044336  0.966952E-03  0.600E+00    0.06       1.0  T
  41    -10.8993073  0.512632E-02  0.607E+00    0.06       1.0  T
  42    -10.8998704 -0.563085E-03  0.607E+00    0.06       1.0  T
  43    -10.9405035 -0.406331E-01  0.601E+00    0.05       1.0  T
  44    -10.9604545 -0.199510E-01  0.623E+00    0.05       1.0  T
  45    -10.9554651  0.498939E-02  0.603E+00    0.05       1.0  T
  46    -10.9428148  0.126503E-01  0.586E+00    0.05       1.0  T
  47    -10.9325749  0.102399E-01  0.585E+00    0.05       1.0  T
  48    -10.9308718  0.170305E-02  0.584E+00    0.05       1.0  T
  49    -11.0055422 -0.746704E-01  0.604E+00    0.05       1.0  T
  50    -11.1401040 -0.134562E+00  0.658E+00    0.05       1.0  T
  51    -11.1500661 -0.996211E-02  0.658E+00    0.04       1.0  T
  52    -11.1605564 -0.104903E-01  0.639E+00    0.04       1.0  T
  53    -11.1654532 -0.489682E-02  0.657E+00    0.04       1.0  T
  54    -11.1674982 -0.204501E-02  0.663E+00    0.04       1.0  T
  55    -11.1763738 -0.887560E-02  0.698E+00    0.04       1.0  T
  56    -11.1714218  0.495205E-02  0.731E+00    0.04       1.0  T
  57    -11.1739629 -0.254113E-02  0.729E+00    0.04       1.0  T
  58    -11.1449171  0.290458E-01  0.747E+00    0.04       1.0  T
  59    -11.1072567  0.376605E-01  0.770E+00    0.04       1.0  T
  60    -11.1339476 -0.266910E-01  0.756E+00    0.04       1.0  T
  61    -11.3032242 -0.169277E+00  0.712E+00    0.04       1.0  T
  62    -11.5227264 -0.219502E+00  0.686E+00    0.03       1.0  T
  63    -11.6337429 -0.111016E+00  0.680E+00    0.03       1.0  T
  64    -11.6242805  0.946246E-02  0.642E+00    0.03       1.0  T
  65    -11.5627621  0.615184E-01  0.608E+00    0.03       1.0  T
  66    -11.5125485  0.502135E-01  0.598E+00    0.03       1.0  T
  67    -11.7299934 -0.217445E+00  0.602E+00    0.03       1.0  T
  68    -12.5453896 -0.815396E+00  0.111E+01    0.07       1.0  T
  69    -12.4164819  0.128908E+00  0.615E+00    0.04       1.0  T
  70    -12.5189320 -0.102450E+00  0.672E+00    0.07       1.0  T
  71    -11.5100956  0.100884E+01  0.740E+00    0.05       1.0  T
  72    -12.5707395 -0.106064E+01  0.104E+01    0.09       1.0  T
  73    -12.5813656 -0.106261E-01  0.615E+00    0.11       1.0  T
  74    -12.5638436  0.175220E-01  0.502E+00    0.22       1.0  T
  75    -12.5531684  0.106752E-01  0.518E+00    0.27       1.0  T
  76    -12.5563238 -0.315538E-02  0.513E+00    0.25       1.0  T
  77    -12.5767902 -0.204664E-01  0.381E+00    0.17       1.0  T
  78    -12.5805725 -0.378236E-02  0.396E+00    0.15       1.0  T
  79    -12.5806856 -0.113047E-03  0.294E+00    0.11       1.0  T
  80    -12.5663506  0.143350E-01  0.295E+00    0.09       1.0  T
  81    -12.5575939  0.875663E-02  0.664E+00    0.22       1.0  T
  82    -12.5637044 -0.611049E-02  0.547E+00    0.21       1.0  T
  83    -12.5669966 -0.329214E-02  0.594E+00    0.19       1.0  T
  84    -12.5598808  0.711579E-02  0.638E+00    0.21       1.0  T
  85    -12.5599891 -0.108342E-03  0.551E+00    0.23       1.0  T
  86    -12.5551247  0.486440E-02  0.553E+00    0.26       1.0  T
  87    -12.5605115 -0.538679E-02  0.203E+00    0.34       1.0  T
  88    -12.5628443 -0.233274E-02  0.154E+00    0.39       1.0  T
  89    -12.5671018 -0.425750E-02  0.137E+00    0.39       1.0  T
  90    -12.5682035 -0.110177E-02  0.135E+00    0.39       1.0  T
  91    -12.5707466 -0.254308E-02  0.107E+00    0.38       1.0  T
  92    -12.5729128 -0.216619E-02  0.634E-01    0.37       1.0  T
  93    -12.5734532 -0.540434E-03  0.644E-01    0.34       1.0  T
  94    -12.5774201 -0.396683E-02  0.765E-01    0.29       1.0  T
  95    -12.5797155 -0.229546E-02  0.672E-01    0.26       1.0  T
  96    -12.5811499 -0.143437E-02  0.671E-01    0.24       1.0  T
  97    -12.5823070 -0.115707E-02  0.665E-01    0.23       1.0  T
  98    -12.5816399  0.667101E-03  0.710E-01    0.24       1.0  T
  99    -12.5833145 -0.167464E-02  0.583E-01    0.22       1.0  T
 100    -12.5853074 -0.199294E-02  0.291E-01    0.20       1.0  T
 101    -12.5858463 -0.538891E-03  0.118E-01    0.19       1.0  T
 102    -12.5858697 -0.233208E-04  0.107E-01    0.19       1.0  T
 103    -12.5858746 -0.495447E-05  0.111E-01    0.19       1.0  T
 104    -12.5858754 -0.798899E-06  0.101E-01    0.19       1.0  T
 105    -12.5857666  0.108842E-03  0.132E-01    0.19       1.0  T
 106    -12.5856529  0.113675E-03  0.163E-01    0.18       1.0  T
 107    -12.5857154 -0.625220E-04  0.142E-01    0.18       1.0  T
 108    -12.5858177 -0.102328E-03  0.906E-02    0.19       1.0  T
 109    -12.5858461 -0.283442E-04  0.610E-02    0.19       1.0  T
 110    -12.5858534 -0.731608E-05  0.475E-02    0.19       1.0  T
 111    -12.5858592 -0.583280E-05  0.398E-02    0.19       1.0  T
 112    -12.5858679 -0.864524E-05  0.296E-02    0.19       1.0  T
 113    -12.5858738 -0.593121E-05  0.205E-02    0.19       1.4  T
 114    -12.5858773 -0.347888E-05  0.143E-02    0.19       2.0  T
 115    -12.5858801 -0.281105E-05  0.885E-03    0.19       3.3  T
 116    -12.5858817 -0.164695E-05  0.463E-03    0.19       6.2  T
 117    -12.5858819 -0.121564E-06  0.465E-03    0.19       6.2  T
 118    -12.5858819  0.963732E-08  0.368E-03    0.19       7.9  T
 119    -12.5858819 -0.172934E-07  0.223E-03    0.19      13.0  T
 120    -12.5858819  0.810778E-08  0.225E-03    0.19      12.9  T
 121    -12.5858819 -0.267507E-08  0.155E-03    0.19      18.6  T
 122    -12.5858819 -0.219929E-08  0.110E-03    0.19      26.3  T
 123    -12.5858819 -0.164892E-08  0.101E-03    0.19      28.7  T
 124    -12.5858819 -0.888862E-09  0.402E-04    0.19      71.9  T
 125    -12.5858819 -0.133234E-08  0.176E-04    0.19     164.3  T
     SCC iter.                  ...        0 min,  0.037 sec
     gradient                   ...        0 min,  0.000 sec
 * total energy  :   -12.3662223 Eh     change       -0.4616128E-01 Eh
   gradient norm :     0.1651359 Eh/α   predicted    -0.7654890E-01 (  65.83%)
   displ. norm   :     0.6473315 α      lambda       -0.7780696E-01
   maximum displ.:     0.3317156 α      in ANC's #24, #2, #16, ...

........................................................................
.............................. CYCLE    8 ..............................
........................................................................
   1    -11.7505335 -0.117505E+02  0.942E+00    0.11       0.0  T
   2     -9.6957178  0.205482E+01  0.169E+01    0.69       1.0  T
   3    -11.5620011 -0.186628E+01  0.893E+00    1.96       1.0  T
   4    -12.2326615 -0.670660E+00  0.629E+00    2.18       1.0  T
   5    -12.4528385 -0.220177E+00  0.445E+00    1.90       1.0  T
   6    -12.3077047  0.145134E+00  0.465E+00    0.25       1.0  T
   7    -12.5942484 -0.286544E+00  0.292E+00    0.49       1.0  T
   8    -12.6434124 -0.491640E-01  0.207E+00    0.33       1.0  T
   9    -12.6468197 -0.340727E-02  0.161E+00    0.39       1.0  T
  10     -9.8830494  0.276377E+01  0.150E+01    0.24       1.0  T
  11     -8.8993101  0.983739E+00  0.156E+01    0.35       1.0  T
  12     -7.6373448  0.126197E+01  0.162E+01    0.32       1.0  T
  13     -7.7745333 -0.137189E+00  0.161E+01    0.33       1.0  T
  14     -6.9613621  0.813171E+00  0.166E+01    0.26       1.0  T
  15     -7.7272933 -0.765931E+00  0.162E+01    0.32       1.0  T
  16     -7.8576817 -0.130388E+00  0.162E+01    0.32       1.0  T
  17     -7.9345552 -0.768736E-01  0.161E+01    0.33       1.0  T
  18     -7.8096933  0.124862E+00  0.162E+01    0.32       1.0  T
  19     -8.2382273 -0.428534E+00  0.159E+01    0.34       1.0  T
  20     -9.2761643 -0.103794E+01  0.153E+01    0.32       1.0  T
  21    -10.5506962 -0.127453E+01  0.144E+01    0.18       1.0  T
  22    -10.1179613  0.432735E+00  0.150E+01    0.23       1.0  T
  23    -10.0194389  0.985224E-01  0.151E+01    0.24       1.0  T
  24     -9.8139626  0.205476E+00  0.153E+01    0.26       1.0  T
  25    -10.9178863 -0.110392E+01  0.133E+01    0.13       1.0  T
  26    -12.6569561 -0.173907E+01  0.161E+00    0.34       1.0  T
  27    -12.6782644 -0.213084E-01  0.120E+00    0.21       1.0  T
  28    -12.6627978  0.154667E-01  0.146E+00    0.31       1.0  T
  29    -12.6534830  0.931474E-02  0.185E+00    0.36       1.0  T
  30    -12.6539726 -0.489577E-03  0.181E+00    0.36       1.0  T
  31    -12.6508171  0.315553E-02  0.194E+00    0.38       1.0  T
  32    -12.6352756  0.155414E-01  0.242E+00    0.47       1.0  T
  33    -12.6178391  0.174366E-01  0.284E+00    0.57       1.0  T
  34    -12.6166990  0.114008E-02  0.289E+00    0.57       1.0  T
  35    -12.6207801 -0.408112E-02  0.297E+00    0.52       1.0  T
  36    -12.6459602 -0.251801E-01  0.254E+00    0.35       1.0  T
  37    -12.6634483 -0.174881E-01  0.212E+00    0.25       1.0  T
  38    -12.6619690  0.147935E-02  0.218E+00    0.25       1.0  T
  39    -12.5758317  0.861373E-01  0.296E+00    0.08       1.0  T
  40    -12.6783137 -0.102482E+00  0.145E+00    0.15       1.0  T
  41    -12.6249510  0.533627E-01  0.195E+00    0.08       1.0  T
  42    -12.6662392 -0.412882E-01  0.989E-01    0.11       1.0  T
  43    -12.6496744  0.165649E-01  0.135E+00    0.09       1.0  T
  44    -12.6576271 -0.795271E-02  0.116E+00    0.10       1.0  T
  45    -12.6578690 -0.241972E-03  0.116E+00    0.10       1.0  T
  46    -12.6782984 -0.204294E-01  0.165E+00    0.13       1.0  T
  47    -12.6740243  0.427415E-02  0.107E+00    0.12       1.0  T
  48    -12.6784143 -0.438999E-02  0.151E+00    0.14       1.0  T
  49    -12.6780616  0.352702E-03  0.120E+00    0.13       1.0  T
  50    -12.6784775 -0.415963E-03  0.127E+00    0.14       1.0  T
  51    -12.6783431  0.134403E-03  0.104E+00    0.14       1.0  T
  52    -12.6784810 -0.137921E-03  0.102E+00    0.14       1.0  T
  53    -12.6783851  0.959722E-04  0.880E-01    0.14       1.0  T
  54    -12.6785236 -0.138528E-03  0.912E-01    0.15       1.0  T
  55    -12.6785960 -0.723599E-04  0.923E-01    0.15       1.0  T
  56    -12.6786220 -0.260287E-04  0.879E-01    0.16       1.0  T
  57    -12.6786647 -0.427139E-04  0.720E-01    0.16       1.0  T
  58    -12.6786539  0.108144E-04  0.596E-01    0.16       1.0  T
  59    -12.6785693  0.846020E-04  0.494E-01    0.16       1.0  T
  60    -12.6784373  0.132003E-03  0.415E-01    0.16       1.0  T
  61    -12.6782931  0.144208E-03  0.356E-01    0.16       1.0  T
  62    -12.6781940  0.990465E-04  0.315E-01    0.16       1.0  T
  63    -12.6782224 -0.284116E-04  0.290E-01    0.16       1.0  T
  64    -12.6784081 -0.185679E-03  0.286E-01    0.17       1.0  T
  65    -12.6785169 -0.108781E-03  0.290E-01    0.17       1.0  T
  66    -12.6785531 -0.362237E-04  0.267E-01    0.17       1.0  T
  67    -12.6785721 -0.189949E-04  0.219E-01    0.17       1.0  T
  68    -12.6786009 -0.287784E-04  0.190E-01    0.18       1.0  T
  69    -12.6786343 -0.334090E-04  0.164E-01    0.18       1.0  T
  70    -12.6786642 -0.298686E-04  0.135E-01    0.18       1.0  T
  71    -12.6786865 -0.223304E-04  0.105E-01    0.18       1.0  T
  72    -12.6787051 -0.185741E-04  0.806E-02    0.19       1.0  T
  73    -12.6787220 -0.169057E-04  0.608E-02    0.19       1.0  T
  74    -12.6787369 -0.148849E-04  0.454E-02    0.19       1.0  T
  75    -12.6787490 -0.121107E-04  0.334E-02    0.19       1.0  T
  76    -12.6787582 -0.920767E-05  0.240E-02    0.19       1.2  T
  77    -12.6787652 -0.702156E-05  0.155E-02    0.19       1.9  T
  78    -12.6787698 -0.459120E-05  0.661E-03    0.20       4.4  T
  79    -12.6787706 -0.757003E-06  0.225E-03    0.20      12.8  T
  80    -12.6787705  0.310801E-07  0.204E-03    0.20      14.1  T
  81    -12.6787706 -0.738422E-07  0.224E-03    0.20      12.9  T
  82    -12.6787706 -0.190864E-08  0.787E-04    0.20      36.7  T
  83    -12.6787706 -0.196037E-08  0.461E-04    0.20      62.6  T
     SCC iter.                  ...        0 min,  0.019 sec
     gradient                   ...        0 min,  0.000 sec
 * total energy  :   -12.4197019 Eh     change       -0.5347958E-01 Eh
   gradient norm :     0.1143992 Eh/α   predicted    -0.5520550E-01 (   3.23%)
   displ. norm   :     0.7986422 α      lambda       -0.5131318E-01
   maximum displ.:     0.3612060 α      in ANC's #2, #20, #24, ...

........................................................................
.............................. CYCLE    9 ..............................
........................................................................
   1    -12.7738160 -0.127738E+02  0.237E+00    0.63       0.0  T
   2    -10.5075460  0.226627E+01  0.121E+01    0.28       1.0  T
   3    -12.7326651 -0.222512E+01  0.232E+00    0.99       1.0  T
   4    -12.7625043 -0.298392E-01  0.140E+00    0.65       1.0  T
   5    -12.7418381  0.206662E-01  0.149E+00    0.65       1.0  T
   6    -12.7547484 -0.129103E-01  0.117E+00    0.70       1.0  T
   7    -12.7632694 -0.852097E-02  0.100E+00    0.68       1.0  T
   8    -12.7642742 -0.100486E-02  0.951E-01    0.66       1.0  T
   9    -12.7693771 -0.510285E-02  0.726E-01    0.61       1.0  T
  10    -12.7764268 -0.704974E-02  0.324E-01    0.52       1.0  T
  11    -12.7770337 -0.606869E-03  0.302E-01    0.51       1.0  T
  12    -12.7733967  0.363695E-02  0.525E-01    0.57       1.0  T
  13    -12.7742799 -0.883199E-03  0.456E-01    0.56       1.0  T
  14    -12.7771717 -0.289180E-02  0.725E-02    0.48       1.0  T
  15    -12.7767722  0.399500E-03  0.179E-01    0.51       1.0  T
  16    -12.7771138 -0.341545E-03  0.100E-01    0.50       1.0  T
  17    -12.7771530 -0.391998E-04  0.856E-02    0.50       1.0  T
  18    -12.7772131 -0.601454E-04  0.572E-02    0.50       1.0  T
  19    -12.7772489 -0.358105E-04  0.304E-02    0.49       1.0  T
  20    -12.7772607 -0.117471E-04  0.115E-02    0.49       2.5  T
  21    -12.7772624 -0.167483E-05  0.367E-03    0.49       7.9  T
  22    -12.7772624 -0.599483E-07  0.765E-04    0.49      37.7  T
  23    -12.7772624 -0.264570E-08  0.611E-04    0.49      47.3  T
     SCC iter.                  ...        0 min,  0.004 sec
     gradient                   ...        0 min,  0.000 sec
 * total energy  :   -12.4468680 Eh     change       -0.2716610E-01 Eh
   gradient norm :     0.1293871 Eh/α   predicted    -0.4202116E-01 (  54.68%)
   displ. norm   :     0.6813412 α      lambda       -0.5674140E-01
   maximum displ.:     0.3602212 α      in ANC's #10, #2, #15, ...

........................................................................
.............................. CYCLE   10 ..............................
........................................................................
   1    -12.6567411 -0.126567E+02  0.341E+00    0.47       0.0  T
   2    -12.3922401  0.264501E+00  0.618E+00    2.51       1.0  T
   3    -12.6174852 -0.225245E+00  0.361E+00    1.71       1.0  T
   4    -11.7598272  0.857658E+00  0.845E+00    0.36       1.0  T
   5    -12.7107853 -0.950958E+00  0.140E+00    0.68       1.0  T
   6    -12.7177794 -0.699408E-02  0.149E+00    0.73       1.0  T
   7    -12.7539629 -0.361835E-01  0.720E-01    0.55       1.0  T
   8    -12.7312410  0.227219E-01  0.181E+00    0.48       1.0  T
   9    -12.7239000  0.734104E-02  0.198E+00    0.47       1.0  T
  10    -12.7412324 -0.173325E-01  0.143E+00    0.50       1.0  T
  11    -12.7387304  0.250197E-02  0.131E+00    0.68       1.0  T
  12    -12.7126650  0.260654E-01  0.227E+00    0.88       1.0  T
  13    -12.7218742 -0.920914E-02  0.194E+00    0.83       1.0  T
  14    -12.7454381 -0.235640E-01  0.107E+00    0.69       1.0  T
  15    -12.7514108 -0.597267E-02  0.702E-01    0.65       1.0  T
  16    -12.7542401 -0.282932E-02  0.480E-01    0.63       1.0  T
  17    -12.7562787 -0.203860E-02  0.153E-01    0.59       1.0  T
  18    -12.7564316 -0.152844E-03  0.386E-02    0.58       1.0  T
  19    -12.7563674  0.641163E-04  0.793E-02    0.58       1.0  T
  20    -12.7563587  0.870352E-05  0.864E-02    0.58       1.0  T
  21    -12.7564311 -0.723777E-04  0.349E-02    0.58       1.0  T
  22    -12.7564424 -0.113159E-04  0.157E-02    0.58       1.8  T
  23    -12.7564453 -0.289118E-05  0.439E-03    0.58       6.6  T
  24    -12.7564456 -0.239709E-06  0.878E-04    0.58      32.9  T
  25    -12.7564456 -0.377714E-08  0.652E-04    0.58      44.3  T
     SCC iter.                  ...        0 min,  0.004 sec
     gradient                   ...        0 min,  0.001 sec
 * total energy  :   -12.4581113 Eh     change       -0.1124331E-01 Eh
   gradient norm :     0.1087085 Eh/α   predicted    -0.4154109E-01 ( 269.47%)
   displ. norm   :     0.6323273 α      lambda       -0.4258597E-01
   maximum displ.:     0.3928443 α      in ANC's #2, #10, #14, ...

........................................................................
.............................. CYCLE   11 ..............................
........................................................................
   1    -12.7476651 -0.127477E+02  0.208E+00    0.62       0.0  T
   2      3.3296500  0.160773E+02  0.165E+01    0.23       1.0  T
   3    -12.6131036 -0.159428E+02  0.342E+00    1.48       1.0  T
   4    -12.5629132  0.501905E-01  0.395E+00    1.55       1.0  T
   5    -12.2220984  0.340815E+00  0.449E+00    1.26       1.0  T
   6    -12.6631562 -0.441058E+00  0.170E+00    1.17       1.0  T
   7    -12.7039658 -0.408096E-01  0.128E+00    0.95       1.0  T
   8    -12.7157278 -0.117620E-01  0.115E+00    0.95       1.0  T
   9    -12.7104744  0.525340E-02  0.112E+00    0.99       1.0  T
  10    -12.7105777 -0.103319E-03  0.110E+00    0.99       1.0  T
  11    -12.7188221 -0.824439E-02  0.103E+00    0.93       1.0  T
  12    -12.7284754 -0.965328E-02  0.937E-01    0.85       1.0  T
  13    -12.7355241 -0.704868E-02  0.868E-01    0.81       1.0  T
  14    -12.7230174  0.125066E-01  0.101E+00    0.89       1.0  T
  15    -12.7579710 -0.349535E-01  0.661E-01    0.66       1.0  T
  16    -12.7570711  0.899885E-03  0.674E-01    0.66       1.0  T
  17    -12.7683420 -0.112709E-01  0.599E-01    0.58       1.0  T
  18    -12.7684966 -0.154611E-03  0.602E-01    0.57       1.0  T
  19    -12.7726909 -0.419428E-02  0.603E-01    0.51       1.0  T
  20    -12.7723257  0.365204E-03  0.505E-01    0.53       1.0  T
  21    -12.7730133 -0.687548E-03  0.485E-01    0.51       1.0  T
  22    -12.7725134  0.499823E-03  0.556E-01    0.48       1.0  T
  23    -12.7724454  0.680574E-04  0.482E-01    0.48       1.0  T
  24    -12.7731828 -0.737396E-03  0.119E-01    0.50       1.0  T
  25    -12.7731779  0.486212E-05  0.131E-01    0.50       1.0  T
  26    -12.7731988 -0.208812E-04  0.358E-02    0.50       1.0  T
  27    -12.7731677  0.311039E-04  0.301E-02    0.50       1.0  T
  28    -12.7731922 -0.245440E-04  0.128E-02    0.50       2.3  T
  29    -12.7731915  0.747940E-06  0.214E-02    0.50       1.4  T
  30    -12.7731995 -0.803406E-05  0.545E-03    0.50       5.3  T
  31    -12.7732003 -0.815260E-06  0.156E-03    0.50      18.6  T
  32    -12.7732004 -0.918784E-07  0.365E-03    0.49       7.9  T
  33    -12.7732005 -0.249942E-07  0.165E-03    0.49      17.5  T
  34    -12.7732005 -0.802427E-09  0.837E-04    0.49      34.5  T
  35    -12.7732005 -0.270022E-09  0.233E-04    0.49     123.8  T
     SCC iter.                  ...        0 min,  0.009 sec
     gradient                   ...        0 min,  0.001 sec
 * total energy  :   -12.4795265 Eh     change       -0.2141515E-01 Eh
   gradient norm :     0.0840816 Eh/α   predicted    -0.2980674E-01 (  39.19%)
   displ. norm   :     0.6865434 α      lambda       -0.3799730E-01
   maximum displ.:     0.4294228 α      in ANC's #15, #22, #10, ...

........................................................................
.............................. CYCLE   12 ..............................
........................................................................
   1    -12.8043267 -0.128043E+02  0.287E+00    0.46       0.0  T
   2     -0.4687306  0.123356E+02  0.146E+01    0.12       1.0  T
   3    -12.6486369 -0.121799E+02  0.353E+00    1.88       1.0  T
   4    -12.6779247 -0.292877E-01  0.295E+00    1.67       1.0  T
   5    -12.3962180  0.281707E+00  0.392E+00    1.30       1.0  T
   6    -12.7017301 -0.305512E+00  0.179E+00    1.22       1.0  T
   7    -12.7364316 -0.347015E-01  0.137E+00    1.04       1.0  T
   8    -12.7295754  0.685612E-02  0.135E+00    1.15       1.0  T
   9    -12.7277778  0.179763E-02  0.136E+00    1.15       1.0  T
  10    -12.7373261 -0.954829E-02  0.126E+00    1.06       1.0  T
  11    -12.7534688 -0.161427E-01  0.113E+00    0.94       1.0  T
  12    -12.7575900 -0.412118E-02  0.108E+00    0.92       1.0  T
  13    -12.7485188  0.907123E-02  0.116E+00    0.98       1.0  T
  14    -12.7410282  0.749057E-02  0.123E+00    1.04       1.0  T
  15    -12.7512237 -0.101955E-01  0.115E+00    0.96       1.0  T
  16    -12.7386811  0.125427E-01  0.125E+00    1.06       1.0  T
  17    -12.8182065 -0.795255E-01  0.747E-01    0.43       1.0  T
  18    -12.8178692  0.337389E-03  0.795E-01    0.42       1.0  T
  19    -12.7897666  0.281026E-01  0.161E+00    0.32       1.0  T
  20    -12.8095116 -0.197450E-01  0.117E+00    0.36       1.0  T
  21    -12.8065468  0.296481E-02  0.126E+00    0.35       1.0  T
  22    -12.8027042  0.384264E-02  0.131E+00    0.34       1.0  T
  23    -12.7965150  0.618914E-02  0.140E+00    0.33       1.0  T
  24    -12.7999671 -0.345210E-02  0.128E+00    0.33       1.0  T
  25    -12.7937135  0.625359E-02  0.126E+00    0.32       1.0  T
  26    -12.8030948 -0.938128E-02  0.921E-01    0.33       1.0  T
  27    -12.8128424 -0.974757E-02  0.490E-01    0.36       1.0  T
  28    -12.8109244  0.191801E-02  0.568E-01    0.35       1.0  T
  29    -12.8079951  0.292923E-02  0.648E-01    0.34       1.0  T
  30    -12.8179964 -0.100012E-01  0.263E-01    0.44       1.0  T
  31    -12.8143454  0.365097E-02  0.423E-01    0.49       1.0  T
  32    -12.8144681 -0.122719E-03  0.377E-01    0.49       1.0  T
  33    -12.8184548 -0.398671E-02  0.390E-02    0.43       1.0  T
  34    -12.8184796 -0.247450E-04  0.304E-02    0.43       1.0  T
  35    -12.8184425  0.371023E-04  0.520E-02    0.43       1.0  T
  36    -12.8184945 -0.519959E-04  0.256E-02    0.42       1.1  T
  37    -12.8185068 -0.123428E-04  0.151E-02    0.42       1.9  T
  38    -12.8185064  0.381160E-06  0.176E-02    0.42       1.6  T
  39    -12.8185036  0.279166E-05  0.217E-02    0.42       1.3  T
  40    -12.8185033  0.343395E-06  0.216E-02    0.42       1.3  T
  41    -12.8185046 -0.128919E-05  0.189E-02    0.42       1.5  T
  42    -12.8185065 -0.192153E-05  0.158E-02    0.42       1.8  T
  43    -12.8185086 -0.212438E-05  0.107E-02    0.42       2.7  T
  44    -12.8185098 -0.115870E-05  0.593E-03    0.42       4.9  T
  45    -12.8185101 -0.355555E-06  0.279E-03    0.42      10.3  T
  46    -12.8185102 -0.825958E-07  0.758E-04    0.42      38.1  T
  47    -12.8185102 -0.658876E-08  0.160E-04    0.42     180.1  T
     SCC iter.                  ...        0 min,  0.008 sec
     gradient                   ...        0 min,  0.001 sec
 * total energy  :   -12.4688632 Eh     change        0.1066331E-01 Eh
   gradient norm :     0.2426339 Eh/α   predicted    -0.2795348E-01 (-362.15%)
   displ. norm   :     0.4241831 α      lambda       -0.5526051E-01
   maximum displ.:     0.2724794 α      in ANC's #15, #10, #20, ...

........................................................................
.............................. CYCLE   13 ..............................
........................................................................
   1    -12.8158550 -0.128159E+02  0.160E+00    0.62       0.0  T
   2    -12.8026256  0.132294E-01  0.137E+00    0.76       1.0  T
   3    -11.6357024  0.116692E+01  0.973E+00    0.36       1.0  T
   4    -12.5407989 -0.905096E+00  0.489E+00    0.39       1.0  T
   5    -11.0886179  0.145218E+01  0.112E+01    0.36       1.0  T
   6    -11.7266456 -0.638028E+00  0.932E+00    0.36       1.0  T
   7    -11.7078925  0.187530E-01  0.939E+00    0.36       1.0  T
   8    -12.2411019 -0.533209E+00  0.710E+00    0.35       1.0  T
   9    -12.7370922 -0.495990E+00  0.231E+00    0.46       1.0  T
  10    -12.8084146 -0.713224E-01  0.155E+00    0.77       1.0  T
  11    -12.8178368 -0.942218E-02  0.724E-01    0.64       1.0  T
  12    -12.8177052  0.131644E-03  0.555E-01    0.65       1.0  T
  13    -12.8172922  0.412986E-03  0.292E-01    0.62       1.0  T
  14    -12.8168392  0.453019E-03  0.327E-01    0.65       1.0  T
  15    -12.8176945 -0.855332E-03  0.194E-01    0.64       1.0  T
  16    -12.8178888 -0.194271E-03  0.109E-01    0.63       1.0  T
  17    -12.8178208  0.679296E-04  0.959E-02    0.62       1.0  T
  18    -12.8178898 -0.689466E-04  0.441E-02    0.63       1.0  T
  19    -12.8178835  0.629078E-05  0.341E-02    0.63       1.0  T
  20    -12.8178739  0.957109E-05  0.343E-02    0.63       1.0  T
  21    -12.8178850 -0.110546E-04  0.263E-02    0.63       1.1  T
  22    -12.8178884 -0.342600E-05  0.233E-02    0.63       1.2  T
  23    -12.8178912 -0.277501E-05  0.186E-02    0.63       1.6  T
  24    -12.8178933 -0.216896E-05  0.139E-02    0.63       2.1  T
  25    -12.8178954 -0.208297E-05  0.769E-03    0.63       3.8  T
  26    -12.8178960 -0.576762E-06  0.511E-03    0.63       5.7  T
  27    -12.8178962 -0.180091E-06  0.397E-03    0.63       7.3  T
  28    -12.8178963 -0.141938E-06  0.272E-03    0.63      10.6  T
  29    -12.8178964 -0.456290E-07  0.212E-03    0.63      13.6  T
  30    -12.8178964 -0.294329E-07  0.158E-03    0.63      18.3  T
  31    -12.8178964 -0.315704E-07  0.540E-04    0.63      53.5  T
  32    -12.8178964 -0.361695E-08  0.208E-04    0.63     138.5  T
     SCC iter.                  ...        0 min,  0.006 sec
     gradient                   ...        0 min,  0.001 sec
 * total energy  :   -12.4988286 Eh     change       -0.2996549E-01 Eh
   gradient norm :     0.0551330 Eh/α   predicted    -0.3260182E-01 (   8.80%)
   displ. norm   :     0.5891491 α      lambda       -0.1765607E-01
   maximum displ.:     0.3755440 α      in ANC's #10, #9, #30, ...

........................................................................
.............................. CYCLE   14 ..............................
........................................................................
   1    -12.8142603 -0.128143E+02  0.191E+00    0.65       0.0  T
   2    -10.2950636  0.251920E+01  0.125E+01    0.51       1.0  T
   3    -12.8014170 -0.250635E+01  0.162E+00    0.59       1.0  T
   4    -12.7321536  0.692634E-01  0.280E+00    0.45       1.0  T
   5    -12.5540551  0.178099E+00  0.545E+00    0.34       1.0  T
   6    -11.7832348  0.770820E+00  0.102E+01    0.36       1.0  T
   7    -12.7908215 -0.100759E+01  0.130E+00    0.56       1.0  T
   8    -12.8210591 -0.302377E-01  0.618E-01    0.50       1.0  T
   9    -12.8235137 -0.245454E-02  0.306E-01    0.55       1.0  T
  10    -12.8233428  0.170907E-03  0.324E-01    0.56       1.0  T
  11    -12.8242784 -0.935665E-03  0.319E-01    0.52       1.0  T
  12    -12.8244980 -0.219585E-03  0.284E-01    0.53       1.0  T
  13    -12.8243709  0.127136E-03  0.376E-01    0.52       1.0  T
  14    -12.8241442  0.226689E-03  0.535E-01    0.51       1.0  T
  15    -12.8242110 -0.667829E-04  0.511E-01    0.51       1.0  T
  16    -12.8243523 -0.141290E-03  0.407E-01    0.52       1.0  T
  17    -12.8244912 -0.138958E-03  0.217E-01    0.52       1.0  T
  18    -12.8244550  0.362401E-04  0.676E-02    0.53       1.0  T
  19    -12.8244083  0.467005E-04  0.107E-01    0.53       1.0  T
  20    -12.8244649 -0.566395E-04  0.684E-02    0.53       1.0  T
  21    -12.8244870 -0.220306E-04  0.474E-02    0.53       1.0  T
  22    -12.8245026 -0.156559E-04  0.296E-02    0.53       1.0  T
  23    -12.8245092 -0.654631E-05  0.188E-02    0.53       1.5  T
  24    -12.8245119 -0.278783E-05  0.113E-02    0.52       2.6  T
  25    -12.8245133 -0.132123E-05  0.457E-03    0.52       6.3  T
  26    -12.8245135 -0.229340E-06  0.201E-03    0.52      14.4  T
  27    -12.8245136 -0.594064E-07  0.318E-04    0.52      90.7  T
  28    -12.8245136 -0.191095E-08  0.108E-04    0.52     268.5  T
     SCC iter.                  ...        0 min,  0.004 sec
     gradient                   ...        0 min,  0.000 sec
 * total energy  :   -12.5006713 Eh     change       -0.1842696E-02 Eh
   gradient norm :     0.0893268 Eh/α   predicted    -0.1189219E-01 ( 545.37%)
   displ. norm   :     0.5309860 α      lambda       -0.2192818E-01
   maximum displ.:     0.2711380 α      in ANC's #10, #2, #22, ...

........................................................................
.............................. CYCLE   15 ..............................
........................................................................
   1    -12.7915820 -0.127916E+02  0.188E+00    0.70       0.0  T
   2    -12.7537444  0.378375E-01  0.231E+00    1.18       1.0  T
   3    -12.7782027 -0.244583E-01  0.126E+00    0.63       1.0  T
   4    -12.6710419  0.107161E+00  0.286E+00    1.14       1.0  T
   5    -12.7815460 -0.110504E+00  0.115E+00    0.95       1.0  T
   6    -12.7854024 -0.385645E-02  0.963E-01    0.93       1.0  T
   7    -12.7876576 -0.225521E-02  0.830E-01    0.91       1.0  T
   8    -12.7940675 -0.640981E-02  0.247E-01    0.80       1.0  T
   9    -12.7943081 -0.240684E-03  0.146E-01    0.76       1.0  T
  10    -12.7945311 -0.222976E-03  0.620E-02    0.77       1.0  T
  11    -12.7945429 -0.117308E-04  0.577E-02    0.78       1.0  T
  12    -12.7945761 -0.332088E-04  0.206E-02    0.77       1.4  T
  13    -12.7945781 -0.202790E-05  0.141E-02    0.77       2.0  T
  14    -12.7945778  0.323165E-06  0.139E-02    0.77       2.1  T
  15    -12.7945796 -0.184539E-05  0.340E-03    0.77       8.5  T
  16    -12.7945797 -0.764469E-07  0.239E-03    0.77      12.1  T
  17    -12.7945797 -0.551281E-07  0.953E-04    0.77      30.3  T
  18    -12.7945797 -0.335958E-08  0.697E-04    0.77      41.4  T
     SCC iter.                  ...        0 min,  0.005 sec
     gradient                   ...        0 min,  0.001 sec
 * total energy  :   -12.5118271 Eh     change       -0.1115581E-01 Eh
   gradient norm :     0.0725202 Eh/α   predicted    -0.1405537E-01 (  25.99%)
   displ. norm   :     0.7356527 α      lambda       -0.2647810E-01
   maximum displ.:     0.4178608 α      in ANC's #2, #1, #14, ...

........................................................................
.............................. CYCLE   16 ..............................
........................................................................
   1    -12.9056766 -0.129057E+02  0.238E+00    0.63       0.0  T
   2    -12.8830020  0.226746E-01  0.222E+00    0.90       1.0  T
   3    -11.3227722  0.156023E+01  0.107E+01    0.29       1.0  T
   4    -12.8366099 -0.151384E+01  0.237E+00    1.13       1.0  T
   5    -12.8526751 -0.160652E-01  0.178E+00    0.44       1.0  T
   6    -12.8984003 -0.457252E-01  0.104E+00    0.70       1.0  T
   7    -12.9038967 -0.549636E-02  0.878E-01    0.77       1.0  T
   8    -12.8975743  0.632234E-02  0.103E+00    0.84       1.0  T
   9    -12.8964129  0.116141E-02  0.974E-01    0.84       1.0  T
  10    -12.9054645 -0.905162E-02  0.710E-01    0.74       1.0  T
  11    -12.9079677 -0.250317E-02  0.613E-01    0.70       1.0  T
  12    -12.9083226 -0.354870E-03  0.574E-01    0.70       1.0  T
  13    -12.9092348 -0.912243E-03  0.466E-01    0.68       1.0  T
  14    -12.9095469 -0.312067E-03  0.425E-01    0.68       1.0  T
  15    -12.9100700 -0.523082E-03  0.355E-01    0.67       1.0  T
  16    -12.9107052 -0.635186E-03  0.244E-01    0.65       1.0  T
  17    -12.9112898 -0.584684E-03  0.459E-02    0.62       1.0  T
  18    -12.9113081 -0.182424E-04  0.164E-02    0.62       1.8  T
  19    -12.9113110 -0.293104E-05  0.475E-03    0.62       6.1  T
  20    -12.9113111 -0.406967E-07  0.115E-03    0.62      25.1  T
  21    -12.9113110  0.977745E-07  0.287E-03    0.62      10.0  T
  22    -12.9113110 -0.622042E-07  0.193E-03    0.62      15.0  T
  23    -12.9113110 -0.273271E-07  0.101E-03    0.62      28.6  T
  24    -12.9113111 -0.105535E-07  0.243E-04    0.62     118.7  T
  25    -12.9113111 -0.433991E-09  0.592E-05    0.62     487.6  T
     SCC iter.                  ...        0 min,  0.005 sec
     gradient                   ...        0 min,  0.001 sec
 * total energy  :   -12.4964593 Eh     change        0.1536783E-01 Eh
   gradient norm :     0.2260718 Eh/α   predicted    -0.2040382E-01 (-232.77%)
   displ. norm   :     0.4246150 α      lambda       -0.5007465E-01
   maximum displ.:     0.1863402 α      in ANC's #1, #12, #10, ...

........................................................................
.............................. CYCLE   17 ..............................
........................................................................
   1    -12.8552453 -0.128552E+02  0.240E+00    1.04       0.0  T
   2    -12.8086508  0.465945E-01  0.225E+00    0.76       1.0  T
   3    -12.7789987  0.296521E-01  0.224E+00    2.06       1.0  T
   4    -12.8312670 -0.522683E-01  0.143E+00    0.92       1.0  T
   5    -12.8228625  0.840448E-02  0.141E+00    1.52       1.0  T
   6    -12.8538550 -0.309925E-01  0.638E-01    1.23       1.0  T
   7    -12.8581061 -0.425110E-02  0.458E-01    1.16       1.0  T
   8    -12.8580272  0.789463E-04  0.464E-01    1.16       1.0  T
   9    -12.8603638 -0.233661E-02  0.214E-01    1.09       1.0  T
  10    -12.8611277 -0.763906E-03  0.474E-02    1.06       1.0  T
  11    -12.8611311 -0.335621E-05  0.403E-02    1.04       1.0  T
  12    -12.8611215  0.961148E-05  0.389E-02    1.04       1.0  T
  13    -12.8611472 -0.257487E-04  0.723E-03    1.05       4.0  T
  14    -12.8611460  0.118377E-05  0.908E-03    1.05       3.2  T
  15    -12.8611468 -0.790147E-06  0.606E-03    1.05       4.8  T
  16    -12.8611474 -0.590175E-06  0.989E-04    1.05      29.2  T
  17    -12.8611474 -0.134403E-07  0.369E-04    1.05      78.3  T
     SCC iter.                  ...        0 min,  0.003 sec
     gradient                   ...        0 min,  0.000 sec
 * total energy  :   -12.5241220 Eh     change       -0.2766265E-01 Eh
   gradient norm :     0.0675876 Eh/α   predicted    -0.2955152E-01 (   6.83%)
   displ. norm   :     0.7302027 α      lambda       -0.2928641E-01
   maximum displ.:     0.4721717 α      in ANC's #6, #10, #18, ...

........................................................................
.............................. CYCLE   18 ..............................
[...]
   maximum displ.:     0.0446863 α      in ANC's #7, #1, #11, ...
 * RMSD in coord.:     0.6290094 α      energy gain  -0.3771121E-03 Eh

generating ANC from model Hessian ...
Using Lindh-Hessian (1995)
 Shifting diagonal of input Hessian by    1.0025318699610429E-002
 Lowest  eigenvalues of input Hessian
    0.010000    0.000000    0.000000    0.000000    0.000000    0.000000
    0.000000    0.010028    0.010044    0.010092    0.010102    0.010131
    0.010171    0.010196    0.010232    0.010346    0.010350    0.010500
 Highest eigenvalues
    0.575977    0.584022    0.642791    0.863111    1.804264    2.497105


........................................................................
.............................. CYCLE   93 ..............................
........................................................................
   1    -12.9549808 -0.129550E+02  0.168E-01    2.71       0.0  T
   2    -12.9549759  0.492275E-05  0.115E-01    2.71       1.0  T
   3    -12.9545916  0.384275E-03  0.131E-01    2.71       1.0  T
   4    -12.9549382 -0.346622E-03  0.435E-02    2.71       1.0  T
   5    -12.9549829 -0.446290E-04  0.104E-02    2.71       2.8  T
   6    -12.9549810  0.182832E-05  0.128E-02    2.71       2.3  T
   7    -12.9549830 -0.192888E-05  0.336E-03    2.71       8.6  T
   8    -12.9549831 -0.119271E-06  0.260E-03    2.71      11.1  T
   9    -12.9549832 -0.741984E-07  0.151E-03    2.71      19.2  T
  10    -12.9549832 -0.176814E-07  0.589E-04    2.71      49.0  T
  11    -12.9549832 -0.544193E-08  0.162E-04    2.71     178.1  T
     SCC iter.                  ...        0 min,  0.002 sec
     gradient                   ...        0 min,  0.001 sec
 * total energy  :   -12.6132785 Eh     change       -0.4908150E-05 Eh
   gradient norm :     0.0016273 Eh/α   predicted     0.0000000E+00 (-100.00%)
   displ. norm   :     0.0222284 α      lambda       -0.6414103E-05
   maximum displ.:     0.0124921 α      in ANC's #4, #2, #1, ...

........................................................................
.............................. CYCLE   94 ..............................
........................................................................
   1    -12.9552575 -0.129553E+02  0.554E-02    2.71       0.0  T
   2    -12.9552567  0.763105E-06  0.342E-02    2.71       1.0  T
   3    -12.9552123  0.444326E-04  0.458E-02    2.71       1.0  T
   4    -12.9552549 -0.426173E-04  0.108E-02    2.71       2.7  T
   5    -12.9552571 -0.217726E-05  0.598E-03    2.71       4.8  T
   6    -12.9552577 -0.578838E-06  0.303E-03    2.71       9.5  T
   7    -12.9552577 -0.455822E-07  0.134E-03    2.71      21.6  T
   8    -12.9552578 -0.227835E-07  0.467E-04    2.71      61.9  T
   9    -12.9552578 -0.190752E-08  0.348E-04    2.71      83.0  T
     SCC iter.                  ...        0 min,  0.002 sec
     gradient                   ...        0 min,  0.000 sec
 * total energy  :   -12.6132820 Eh     change       -0.3521693E-05 Eh
   gradient norm :     0.0008330 Eh/α   predicted    -0.3208935E-05 (  -8.88%)
   displ. norm   :     0.0645566 α      lambda       -0.1390631E-04
   maximum displ.:     0.0334319 α      in ANC's #4, #2, #16, ...

   *** GEOMETRY OPTIMIZATION CONVERGED AFTER 94 ITERATIONS ***

------------------------------------------------------------------------
 total energy gain   :        -0.7509844 Eh     -471.2498 kcal/mol
 total RMSD          :         2.7921351 a0        1.4775 Å
 total power (kW/mol):       -20.9756293 (step)-4582.6964 (real)
------------------------------------------------------------------------

 ANCopt (total)                0 d,  0 h,  0 min,  0.430 sec
 optimizer setup                ...        0 min,  0.000 sec (  0.013%)
 model hessian                  ...        0 min,  0.002 sec (  0.394%)
 ANC generation                 ...        0 min,  0.000 sec (  0.105%)
 coordinate transformation      ...        0 min,  0.000 sec (  0.060%)
 single point calculation       ...        0 min,  0.419 sec ( 97.470%)
 optimization log               ...        0 min,  0.003 sec (  0.643%)
 hessian update                 ...        0 min,  0.002 sec (  0.502%)
 rational function              ...        0 min,  0.002 sec (  0.467%)

================
 final structure:
================
12
 xtb: 6.5.1 (conda-forge)
Be           2.13576718232163       -0.50734467482898        2.03032365334189
Be           3.75088453457072       -0.21712617188447        0.90854610650938
C            4.41631822625449        1.31431179785114        0.86124326666210
C            3.52042439691890        1.70900542308715        1.62805652260300
C            2.42317398694201        1.51159399504915        2.39156960144819
C            1.51876772124144        0.80147767658183        2.86434436374896
H            4.82682068233435       -0.76834173118287        3.61297984005446
H            5.29551894059851       -0.71531188436030        4.23983256787488
H            4.45456197770029        1.87785840616964        4.61139170533089
H            4.42226072605328        2.57445397872297        4.95817401370036
H            2.71907905281724        0.34059026000574        6.09188291750929
H            2.40442257229365       -0.30349907524062        6.39165544121609

 Bond Distances (Angstroems)
 ---------------------------
Be1-Be2=1.9878       Be1-C5=2.0710        Be1-C6=1.6701        Be2-Be1=1.9878       Be2-C3=1.6704        Be2-C4=2.0690        
C3-Be2=1.6704        C3-C4=1.2435         C4-Be2=2.0690        C4-C3=1.2435         C4-C5=1.3513         C5-Be1=2.0710        
C5-C4=1.3513         C5-C6=1.2433         C6-Be1=1.6701        C6-C5=1.2433         H7-H8=0.7845         H8-H7=0.7845         
H9-H10=0.7788        H10-H9=0.7788        H11-H12=0.7770       H12-H11=0.7770       
 H  H  Rav=0.7801 sigma=0.0032  Rmin=0.7770  Rmax=0.7845     3
 Be Be Rav=1.9878 sigma=0.0000  Rmin=1.9878  Rmax=1.9878     1
 C  Be Rav=1.8701 sigma=0.1999  Rmin=1.6701  Rmax=2.0710     4
 C  C  Rav=1.2794 sigma=0.0508  Rmin=1.2433  Rmax=1.3513     3

 selected bond angles (degree)
 --------------------
C5-Be1-Be2= 80.99              C6-Be1-Be2=117.88              C6-Be1-C5= 36.89               C3-Be2-Be1=118.26              
C4-Be2-Be1= 81.32              C4-Be2-C3= 36.94               C4-C3-Be2= 89.23               C3-C4-Be2= 53.83               
C5-C4-Be2= 98.68               C5-C4-C3=152.51                C4-C5-Be1= 99.01               C6-C5-Be1= 53.74               
C6-C5-C4=152.75                C5-C6-Be1= 89.37               

 selected dihedral angles (degree)
 ---------------------------------
C3-Be2-Be1-C5=  0.38          C3-Be2-Be1-C6=  0.35          C4-Be2-Be1-C5=359.97          C4-Be2-Be1-C6=359.94          
C4-C3-Be2-Be1=359.33          C3-C4-Be2-Be1=179.40          C5-C4-Be2-Be1=  0.05          C5-C4-Be2-C3=180.65           
C5-C4-C3-Be2=  1.39           C4-C5-Be1-Be2=  0.05          C4-C5-Be1-C6=180.02           C6-C5-Be1-Be2=180.03          
Be1-C5-C4-Be2=359.95          Be1-C5-C4-C3=358.82           C6-C5-C4-Be2=359.92           C6-C5-C4-C3=358.79            
C5-C6-Be1-Be2=  0.04          Be1-C6-C5-C4=  0.04           

 CMA Distance (Angstroems)
 ---------------------------
R(CMA):  1.8625
           -------------------------------------------------
          |                Final Singlepoint                |
           -------------------------------------------------

          ...................................................
          :                      SETUP                      :
          :.................................................:
          :  # basis functions                  30          :
          :  # atomic orbitals                  30          :
          :  # shells                           18          :
          :  # electrons                        26          :
          :  max. iterations                   250          :
          :  Hamiltonian                  GFN2-xTB          :
          :  restarted?                      false          :
          :  GBSA solvation                  false          :
          :  PC potential                    false          :
          :  electronic temp.          300.0000000     K    :
          :  accuracy                    1.0000000          :
          :  -> integral cutoff          0.2500000E+02      :
          :  -> integral neglect         0.1000000E-07      :
          :  -> SCF convergence          0.1000000E-05 Eh   :
          :  -> wf. convergence          0.1000000E-03 e    :
          :  Broyden damping             0.4000000          :
          ...................................................

 iter      E             dE          RMSdq      gap      omega  full diag
   1    -12.9552578 -0.129553E+02  0.141E-04    2.71       0.0  T
   2    -12.9552578  0.311836E-08  0.327E-04    2.71      88.3  T
   3    -12.9552578 -0.335488E-08  0.830E-05    2.71     347.8  T

   *** convergence criteria satisfied after 3 iterations ***

         #    Occupation            Energy/Eh            Energy/eV
      -------------------------------------------------------------
         1        2.0000           -0.5804686             -15.7954
       ...           ...                  ...                  ...
         7        2.0000           -0.4229503             -11.5091
         8        2.0000           -0.4136025             -11.2547
         9        2.0000           -0.4063384             -11.0570
        10        2.0000           -0.3570601              -9.7161
        11        2.0000           -0.3523092              -9.5868
        12        2.0000           -0.3457231              -9.4076
        13        2.0000           -0.3300097              -8.9800 (HOMO)
        14                         -0.2304200              -6.2700 (LUMO)
        15                         -0.2118603              -5.7650
        16                         -0.2034432              -5.5360
        17                         -0.1516149              -4.1257
        18                         -0.1056033              -2.8736
       ...                                ...                  ...
        30                          1.3085780              35.6082
      -------------------------------------------------------------
                  HL-Gap            0.0995897 Eh            2.7100 eV
             Fermi-level           -0.2802148 Eh           -7.6250 eV

 SCC (total)                   0 d,  0 h,  0 min,  0.001 sec
 SCC setup                      ...        0 min,  0.000 sec (  1.346%)
 Dispersion                     ...        0 min,  0.000 sec (  3.940%)
 classical contributions        ...        0 min,  0.000 sec (  2.303%)
 integral evaluation            ...        0 min,  0.000 sec ( 10.605%)
 iterations                     ...        0 min,  0.000 sec ( 31.685%)
 molecular gradient             ...        0 min,  0.001 sec ( 46.781%)
 printout                       ...        0 min,  0.000 sec (  2.594%)

         :::::::::::::::::::::::::::::::::::::::::::::::::::::
         ::                     SUMMARY                     ::
         :::::::::::::::::::::::::::::::::::::::::::::::::::::
         :: total energy             -12.613282017391 Eh    ::
         :: gradient norm              0.000832534422 Eh/a0 ::
         :: HOMO-LUMO gap              2.709974279996 eV    ::
         ::.................................................::
         :: SCC energy               -12.955257754648 Eh    ::
         :: -> isotropic ES           -0.045260786253 Eh    ::
         :: -> anisotropic ES          0.024141542299 Eh    ::
         :: -> anisotropic XC         -0.000950488801 Eh    ::
         :: -> dispersion             -0.005934913291 Eh    ::
         :: repulsion energy           0.341948428956 Eh    ::
         :: add. restraining           0.000000000000 Eh    ::
         :: total charge              -0.000000000000 e     ::
         :::::::::::::::::::::::::::::::::::::::::::::::::::::

           -------------------------------------------------
          |                Property Printout                |
           -------------------------------------------------

    * Orbital Energies and Occupations

         #    Occupation            Energy/Eh            Energy/eV
      -------------------------------------------------------------
         1        2.0000           -0.5804686             -15.7954
         2        2.0000           -0.5606203             -15.2553
         3        2.0000           -0.5076183             -13.8130
         4        2.0000           -0.4838537             -13.1663
         5        2.0000           -0.4656850             -12.6719
         6        2.0000           -0.4577581             -12.4562
         7        2.0000           -0.4229503             -11.5091
         8        2.0000           -0.4136025             -11.2547
         9        2.0000           -0.4063384             -11.0570
        10        2.0000           -0.3570601              -9.7161
        11        2.0000           -0.3523092              -9.5868
        12        2.0000           -0.3457231              -9.4076
        13        2.0000           -0.3300097              -8.9800 (HOMO)
        14                         -0.2304200              -6.2700 (LUMO)
        15                         -0.2118603              -5.7650
        16                         -0.2034432              -5.5360
        17                         -0.1516149              -4.1257
        18                         -0.1056033              -2.8736
        19                         -0.0915213              -2.4904
        20                         -0.0823903              -2.2420
        21                          0.0000926               0.0025
        22                          0.1146154               3.1188
        23                          0.1281159               3.4862
        24                          0.1451000               3.9484
       ...                                ...                  ...
        30                          1.3085780              35.6082
      -------------------------------------------------------------
                  HL-Gap            0.0995897 Eh            2.7100 eV
             Fermi-level           -0.2802148 Eh           -7.6250 eV

     #   Z          covCN         q      C6AA      α(0)
     1   4 Be       2.515     0.385    14.833     8.891
     2   4 Be       2.519     0.385    14.825     8.889
     3   6 C        1.825    -0.286    39.949    10.212
     4   6 C        2.673    -0.097    30.422     9.025
     5   6 C        2.673    -0.097    30.424     9.026
     6   6 C        1.825    -0.287    39.965    10.214
     7   1 H        0.789    -0.017     3.455     2.923
     8   1 H        0.789     0.017     2.844     2.652
     9   1 H        0.807    -0.004     3.179     2.800
    10   1 H        0.807     0.003     3.059     2.747
    11   1 H        0.813     0.003     3.054     2.744
    12   1 H        0.813    -0.004     3.169     2.795

 Mol. C6AA /au·bohr⁶  :       1700.988580
 Mol. C8AA /au·bohr⁸  :      44526.501400
 Mol. α(0) /au        :         72.916965


Wiberg/Mayer (AO) data.
largest (>0.10) Wiberg bond orders for each atom

 ---------------------------------------------------------------------------
     #   Z sym  total        # sym  WBO       # sym  WBO       # sym  WBO
 ---------------------------------------------------------------------------
     1   4 Be   1.984 --     2 Be   0.972     6 C    0.803     5 C    0.155
     2   4 Be   1.986 --     1 Be   0.972     3 C    0.803     4 C    0.155
     3   6 C    3.631 --     4 C    2.453     2 Be   0.803     6 C    0.334
     4   6 C    3.960 --     3 C    2.453     5 C    1.306     2 Be   0.155
     5   6 C    3.960 --     6 C    2.453     4 C    1.306     1 Be   0.155
     6   6 C    3.631 --     5 C    2.453     1 Be   0.803     3 C    0.334
     7   1 H    1.000 --     8 H    0.984
     8   1 H    1.000 --     7 H    0.984
     9   1 H    1.000 --    10 H    0.996
    10   1 H    1.000 --     9 H    0.996
    11   1 H    1.000 --    12 H    0.998
    12   1 H    1.000 --    11 H    0.998
 ---------------------------------------------------------------------------

Topologies differ in total number of bonds
Writing topology from bond orders to xtbtopo.mol

molecular dipole:
                 x           y           z       tot (Debye)
 q only:       -0.022      -2.258      -0.619
   full:       -0.024      -0.960      -0.263       2.531
molecular quadrupole (traceless):
                xx          xy          yy          xz          yz          zz
 q only:        1.624     -19.692       0.210      -2.269     -11.050      -1.834
  q+dip:        0.633      -7.867      -0.319      -0.908      -4.978      -0.314
   full:       -1.462      -9.461       0.666       3.905      -5.070       0.797

           -------------------------------------------------
          |                Geometry Summary                 |
           -------------------------------------------------

      molecular mass/u    :       72.1149542
   center of mass at/Å    :        3.0512057       0.8402490       2.0752250
  moments of inertia/u·Å² :        0.1074292E+03   0.1745177E+03   0.1881526E+03
rotational constants/cm⁻¹ :        0.1569186E+00   0.9659556E-01   0.8959554E-01

 * 9 selected distances

     #   Z          #   Z                                           value/Å
     1   4 Be       2   4 Be                                      1.9877667 (max)
     2   4 Be       3   6 C                                       1.6704318
Note: The following floating-point exceptions are signalling: IEEE_UNDERFLOW_FLAG
normal termination of xtb
     3   6 C        4   6 C                                       1.2435480
     4   6 C        5   6 C                                       1.3512521
     1   4 Be       6   6 C                                       1.6701184
     5   6 C        6   6 C                                       1.2432748
     7   1 H        8   1 H                                       0.7844964
     9   1 H       10   1 H                                       0.7788112
    11   1 H       12   1 H                                       0.7769964 (min)

 * 4 distinct bonds (by element types)

   Z      Z             #   av. dist./Å        max./Å        min./Å
   1 H    1 H           3     0.7801014     0.7844964     0.7769964
   4 Be   4 Be          1     1.9877667     1.9877667     1.9877667
   4 Be   6 C           2     1.6702751     1.6704318     1.6701184
   6 C    6 C           3     1.2793583     1.3512521     1.2432748


optimized geometry written to: xtbopt.xyz


           -------------------------------------------------
          | TOTAL ENERGY              -12.613282017391 Eh   |
          | GRADIENT NORM               0.000832534422 Eh/α |
          | HOMO-LUMO GAP               2.709974279996 eV   |
           -------------------------------------------------
########################################################################
[WARNING] Runtime exception occurred
-3- restart_readRestart: Dimension missmatch in restart file.
-2- restart_readRestart: Multiplicity missmatch in restart file.
-1- restart_readRestart: Number of electron missmatch in restart file.
########################################################################

------------------------------------------------------------------------
 * finished run on 2025/06/07 at 03:27:52.932     
------------------------------------------------------------------------
 total:
 * wall-time:     0 d,  0 h,  0 min,  0.628 sec
 *  cpu-time:     0 d,  0 h,  0 min,  8.909 sec
 * ratio c/w:    14.179 speedup
 SCF:
 * wall-time:     0 d,  0 h,  0 min,  0.193 sec
 *  cpu-time:     0 d,  0 h,  0 min,  2.636 sec
 * ratio c/w:    13.680 speedup
 ANC optimizer:
 * wall-time:     0 d,  0 h,  0 min,  0.432 sec
 *  cpu-time:     0 d,  0 h,  0 min,  6.239 sec
 * ratio c/w:    14.429 speedup

