      -----------------------------------------------------------      
     |                   =====================                   |     
     |                           x T B                           |     
     |                   =====================                   |     
     |                         S. Grimme                         |     
     |          Mulliken Center for Theoretical Chemistry        |     
     |                    University of Bonn                     |     
      -----------------------------------------------------------      

   * xtb version 6.5.1 (conda-forge) compiled by 'runner@Mac-1657629245115.local' on 2022-07-12

   xtb is free software: you can redistribute it and/or modify it under
   the terms of the GNU Lesser General Public License as published by
   the Free Software Foundation, either version 3 of the License, or
   (at your option) any later version.
   
   xtb is distributed in the hope that it will be useful,
   but WITHOUT ANY WARRANTY; without even the implied warranty of
   MERCHANTABILITY or FITNESS FOR A PARTICULAR PURPOSE.  See the
   GNU Lesser General Public License for more details.
   
   Cite this work as:
   * C. Bannwarth, E. Caldeweyher, S. Ehlert, A. Hansen, P. Pracht,
     J. Seibert, S. Spicher, S. Grimme, WIREs Comput. Mol. Sci., 2020, 11,
     e01493. DOI: 10.1002/wcms.1493
   
   for GFN2-xTB:
   * C. Bannwarth, S. Ehlert and S. Grimme., J. Chem. Theory Comput., 2019,
     15, 1652-1671. DOI: 10.1021/acs.jctc.8b01176
   for GFN1-xTB:
   * S. Grimme, C. Bannwarth, P. Shushkov, J. Chem. Theory Comput., 2017,
     13, 1989-2009. DOI: 10.1021/acs.jctc.7b00118
   for GFN0-xTB:
   * P. Pracht, E. Caldeweyher, S. Ehlert, S. Grimme, ChemRxiv, 2019, preprint.
     DOI: 10.26434/chemrxiv.8326202.v1
   for GFN-FF:
   * S. Spicher and S. Grimme, Angew. Chem. Int. Ed., 2020, 59, 15665-15673.
     DOI: 10.1002/anie.202004239
   
   for ALPB and GBSA implicit solvation:
   * S. Ehlert, M. Stahn, S. Spicher, S. Grimme, J. Chem. Theory Comput.,
     2021, 17, 4250-4261. DOI: 10.1021/acs.jctc.1c00471
   
   for DFT-D4:
   * E. Caldeweyher, C. Bannwarth and S. Grimme, J. Chem. Phys., 2017,
     147, 034112. DOI: 10.1063/1.4993215
   * E. Caldeweyher, S. Ehlert, A. Hansen, H. Neugebauer, S. Spicher,
     C. Bannwarth and S. Grimme, J. Chem. Phys., 2019, 150, 154122.
     DOI: 10.1063/1.5090222
   * E. Caldeweyher, J.-M. Mewes, S. Ehlert and S. Grimme, Phys. Chem. Chem. Phys.
     2020, 22, 8499-8512. DOI: 10.1039/D0CP00502A
   
   for sTDA-xTB:
   * S. Grimme and C. Bannwarth, J. Chem. Phys., 2016, 145, 054103.
     DOI: 10.1063/1.4959605
   
   in the mass-spec context:
   * V. Asgeirsson, C. Bauer and S. Grimme, Chem. Sci., 2017, 8, 4879.
     DOI: 10.1039/c7sc00601b
   * J. Koopman and S. Grimme, ACS Omega 2019, 4, 12, 15120-15133.
     DOI: 10.1021/acsomega.9b02011
   
   for metadynamics refer to:
   * S. Grimme, J. Chem. Theory Comput., 2019, 155, 2847-2862
     DOI: 10.1021/acs.jctc.9b00143
   
   for SPH calculations refer to:
   * S. Spicher and S. Grimme, J. Chem. Theory Comput., 2021, 17, 1701-1714
     DOI: 10.1021/acs.jctc.0c01306
   
   with help from (in alphabetical order)
   P. Atkinson, C. Bannwarth, F. Bohle, G. Brandenburg, E. Caldeweyher
   M. Checinski, S. Dohm, S. Ehlert, S. Ehrlich, I. Gerasimov, C. Hölzer
   A. Katbashev, J. Koopman, C. Lavigne, S. Lehtola, F. März, M. Müller,
   F. Musil, H. Neugebauer, J. Pisarek, C. Plett, P. Pracht, F. Pultar,
   J. Seibert, P. Shushkov, S. Spicher, M. Stahn, M. Steiner, T. Strunk,
   J. Stückrath, T. Rose, and J. Unsleber
   
 * started run on 2025/06/07 at 03:27:51.336     

           -------------------------------------------------
          |                Calculation Setup                |
           -------------------------------------------------

          program call               : xtb Be2C3H4.xyz --gfn 2 --opt
          coordinate file            : Be2C3H4.xyz
          omp threads                :                    16

   ID    Z sym.   atoms
    1    4 Be     1, 2
    2    6 C      3-5
    3    1 H      6-9

molecular fragmentation (1/2 indicates fragments):
122222222
# atoms in fragment 1/2:     1     8
 fragment masses (1/2) :        9.01       49.08
CMA distance (Bohr)    :   7.729
constraining FC (au)   :  0.0500

           -------------------------------------------------
          |                 G F N 2 - x T B                 |
           -------------------------------------------------

        Reference                      10.1021/acs.jctc.8b01176
      * Hamiltonian:
        H0-scaling (s, p, d)           1.850000    2.230000    2.230000
        zeta-weighting                 0.500000
      * Dispersion:
        s8                             2.700000
        a1                             0.520000
        a2                             5.000000
        s9                             5.000000
      * Repulsion:
        kExp                           1.500000    1.000000
        rExp                           1.000000
      * Coulomb:
        alpha                          2.000000
        third order                    shell-resolved
        anisotropic                    true
        a3                             3.000000
        a5                             4.000000
        cn-shift                       1.200000
        cn-exp                         4.000000
        max-rad                        5.000000


          ...................................................
          :                      SETUP                      :
          :.................................................:
          :  # basis functions                  24          :
          :  # atomic orbitals                  24          :
          :  # shells                           14          :
          :  # electrons                        20          :
          :  max. iterations                   250          :
          :  Hamiltonian                  GFN2-xTB          :
          :  restarted?                      false          :
          :  GBSA solvation                  false          :
          :  PC potential                    false          :
          :  electronic temp.          300.0000000     K    :
          :  accuracy                    1.0000000          :
          :  -> integral cutoff          0.2500000E+02      :
          :  -> integral neglect         0.1000000E-07      :
          :  -> SCF convergence          0.1000000E-05 Eh   :
          :  -> wf. convergence          0.1000000E-03 e    :
          :  Broyden damping             0.4000000          :
          ...................................................

 iter      E             dE          RMSdq      gap      omega  full diag
   1     25.5462175  0.255462E+02  0.309E+01    0.34       0.0  T
   2     -2.3856344 -0.279319E+02  0.211E+01    1.76       1.0  T
   3     -3.1151616 -0.729527E+00  0.168E+01    2.41       1.0  T
   4     -4.4583172 -0.134316E+01  0.137E+01    0.21       1.0  T
   5     -4.7682395 -0.309922E+00  0.107E+01    0.33       1.0  T
   6     -5.1756022 -0.407363E+00  0.107E+01    1.03       1.0  T
   7     -7.8946941 -0.271909E+01  0.230E+01    0.10       1.0  T
   8     -8.5871819 -0.692488E+00  0.170E+01    0.50       1.0  T
   9     -8.6124051 -0.252233E-01  0.172E+01    0.51       1.0  T
  10     -8.8251714 -0.212766E+00  0.175E+01    0.45       1.0  T
  11     -8.3108268  0.514345E+00  0.243E+01    0.32       1.0  T
  12     -8.3102182  0.608532E-03  0.237E+01    0.29       1.0  T
  13     -8.3884913 -0.782731E-01  0.228E+01    0.26       1.0  T
  14     12.2960491  0.206845E+02  0.248E+01    0.42       1.0  T
  15     12.8483107  0.552262E+00  0.250E+01    0.36       1.0  T
  16      5.8084135 -0.703990E+01  0.222E+01    0.18       1.0  T
  17      5.5713629 -0.237051E+00  0.223E+01    0.17       1.0  T
  18      4.8969172 -0.674446E+00  0.220E+01    0.18       1.0  T
  19     11.1973811  0.630046E+01  0.245E+01    0.26       1.0  T
  20     38.7460359  0.275487E+02  0.455E+01    0.60       1.0  T
  21     10.1091746 -0.286369E+02  0.217E+01    0.25       1.0  T
  22     12.6045571  0.249538E+01  0.241E+01    0.47       1.0  T
  23      6.1778137 -0.642674E+01  0.200E+01    0.13       1.0  T
  24     -8.6240493 -0.148019E+02  0.186E+01    0.17       1.0  T
  25     -2.4920571  0.613199E+01  0.179E+01    0.21       1.0  T
  26     -2.3689721  0.123085E+00  0.178E+01    0.21       1.0  T
  27     -0.3296685  0.203930E+01  0.171E+01    0.24       1.0  T
  28      2.5076925  0.283736E+01  0.177E+01    0.42       1.0  T
  29      0.8210248 -0.168667E+01  0.177E+01    0.34       1.0  T
  30      1.1774535  0.356429E+00  0.177E+01    0.34       1.0  T
  31     -3.6699748 -0.484743E+01  0.180E+01    0.19       1.0  T
  32     -8.6998202 -0.502985E+01  0.172E+01    0.15       1.0  T
  33     -8.7960362 -0.962160E-01  0.160E+01    0.17       1.0  T
  34     -8.6127455  0.183291E+00  0.182E+01    0.15       1.0  T
  35     -8.8422495 -0.229504E+00  0.122E+01    0.33       1.0  T
  36     -8.7736043  0.686451E-01  0.117E+01    0.35       1.0  T
  37     -8.7714466  0.215774E-02  0.117E+01    0.35       1.0  T
  38     -8.7409661  0.304805E-01  0.118E+01    0.38       1.0  T
  39     -8.7975809 -0.566149E-01  0.118E+01    0.34       1.0  T
  40     -8.7349518  0.626291E-01  0.119E+01    0.38       1.0  T
  41     -8.5941869  0.140765E+00  0.118E+01    0.41       1.0  T
  42     -8.6004259 -0.623901E-02  0.119E+01    0.38       1.0  T
  43     -8.4032495  0.197176E+00  0.117E+01    0.44       1.0  T
  44     -8.4549074 -0.516579E-01  0.122E+01    0.42       1.0  T
  45     -8.5344329 -0.795255E-01  0.128E+01    0.39       1.0  T
  46     -8.5592730 -0.248401E-01  0.129E+01    0.37       1.0  T
  47     -8.6039121 -0.446391E-01  0.129E+01    0.33       1.0  T
  48     -8.5903130  0.135991E-01  0.129E+01    0.34       1.0  T
  49     -8.6575623 -0.672493E-01  0.127E+01    0.31       1.0  T
  50     -8.6548605  0.270184E-02  0.127E+01    0.31       1.0  T
  51     -8.6910976 -0.362371E-01  0.127E+01    0.28       1.0  T
  52     -8.6513426  0.397550E-01  0.124E+01    0.27       1.0  T
  53     -8.6884519 -0.371093E-01  0.125E+01    0.25       1.0  T
  54     -8.6689716  0.194803E-01  0.122E+01    0.24       1.0  T
  55     -8.6708021 -0.183058E-02  0.123E+01    0.24       1.0  T
  56     -8.6729682 -0.216608E-02  0.124E+01    0.24       1.0  T
  57     -8.6170541  0.559142E-01  0.124E+01    0.25       1.0  T
  58     -8.5833353  0.337187E-01  0.123E+01    0.25       1.0  T
  59     -8.4349212  0.148414E+00  0.116E+01    0.22       1.0  T
  60     -8.3936198  0.413014E-01  0.113E+01    0.24       1.0  T
  61     -8.3230115  0.706083E-01  0.110E+01    0.24       1.0  T
  62     -8.3485124 -0.255008E-01  0.110E+01    0.23       1.0  T
  63     -8.2179135  0.130599E+00  0.103E+01    0.23       1.0  T
  64     -8.2248225 -0.690905E-02  0.103E+01    0.23       1.0  T
  65     -8.2111102  0.137123E-01  0.103E+01    0.24       1.0  T
  66     -8.1781402  0.329700E-01  0.104E+01    0.25       1.0  T
  67     -8.1835943 -0.545417E-02  0.104E+01    0.25       1.0  T
  68     -8.2076521 -0.240578E-01  0.105E+01    0.24       1.0  T
  69     -8.2251326 -0.174805E-01  0.105E+01    0.24       1.0  T
  70     -8.2169120  0.822063E-02  0.105E+01    0.25       1.0  T
  71     -8.2147054  0.220660E-02  0.104E+01    0.25       1.0  T
  72     -8.1141381  0.100567E+00  0.992E+00    0.26       1.0  T
  73     -8.1271795 -0.130414E-01  0.979E+00    0.27       1.0  T
  74     -8.2288970 -0.101718E+00  0.975E+00    0.27       1.0  T
  75     -8.3177265 -0.888296E-01  0.972E+00    0.26       1.0  T
  76     -8.3476892 -0.299627E-01  0.953E+00    0.27       1.0  T
  77     -8.3540304 -0.634112E-02  0.957E+00    0.27       1.0  T
  78     -8.3318523  0.221780E-01  0.960E+00    0.28       1.0  T
  79     -8.3545047 -0.226524E-01  0.961E+00    0.27       1.0  T
  80     -8.3656712 -0.111665E-01  0.956E+00    0.26       1.0  T
  81     -8.3628864  0.278483E-02  0.951E+00    0.27       1.0  T
  82     -8.3616605  0.122584E-02  0.949E+00    0.27       1.0  T
  83     -8.3673815 -0.572093E-02  0.944E+00    0.27       1.0  T
  84     -8.3933241 -0.259427E-01  0.927E+00    0.27       1.0  T
  85     -8.4344160 -0.410918E-01  0.889E+00    0.26       1.0  T
  86     -8.4784630 -0.440471E-01  0.844E+00    0.25       1.0  T
  87     -8.5001172 -0.216542E-01  0.815E+00    0.25       1.0  T
  88     -8.5218722 -0.217550E-01  0.784E+00    0.25       1.0  T
  89     -8.5378781 -0.160059E-01  0.759E+00    0.26       1.0  T
  90     -8.5462475 -0.836941E-02  0.746E+00    0.26       1.0  T
  91     -8.5512600 -0.501250E-02  0.738E+00    0.27       1.0  T
  92     -8.5558620 -0.460199E-02  0.728E+00    0.27       1.0  T
  93     -8.5627936 -0.693160E-02  0.712E+00    0.27       1.0  T
  94     -8.5816625 -0.188689E-01  0.682E+00    0.28       1.0  T
  95     -8.6092874 -0.276249E-01  0.640E+00    0.29       1.0  T
  96     -8.6375762 -0.282889E-01  0.599E+00    0.29       1.0  T
  97     -8.6725261 -0.349498E-01  0.555E+00    0.30       1.0  T
  98     -8.6953953 -0.228692E-01  0.522E+00    0.30       1.0  T
  99     -8.7370685 -0.416733E-01  0.469E+00    0.30       1.0  T
 100     -8.7764807 -0.394122E-01  0.423E+00    0.30       1.0  T
 101     -8.7958678 -0.193872E-01  0.398E+00    0.30       1.0  T
 102     -8.8351516 -0.392837E-01  0.378E+00    0.29       1.0  T
 103     -8.8352405 -0.889174E-04  0.376E+00    0.29       1.0  T
 104     -8.8515312 -0.162907E-01  0.361E+00    0.29       1.0  T
 105     -8.8708233 -0.192921E-01  0.382E+00    0.28       1.0  T
 106     -8.8684122  0.241109E-02  0.374E+00    0.29       1.0  T
 107     -8.8879945 -0.195824E-01  0.388E+00    0.28       1.0  T
 108     -8.8912209 -0.322633E-02  0.398E+00    0.28       1.0  T
 109     -8.8906671  0.553725E-03  0.395E+00    0.28       1.0  T
 110     -8.8932032 -0.253609E-02  0.436E+00    0.27       1.0  T
 111     -8.8935047 -0.301480E-03  0.433E+00    0.27       1.0  T
 112     -8.8978028 -0.429806E-02  0.428E+00    0.27       1.0  T
 113     -8.8969811  0.821637E-03  0.450E+00    0.27       1.0  T
 114     -8.8959405  0.104059E-02  0.447E+00    0.27       1.0  T
 115     -8.9013399 -0.539932E-02  0.314E+00    0.30       1.0  T
 116     -8.9056077 -0.426781E-02  0.229E+00    0.31       1.0  T
 117     -8.9084013 -0.279367E-02  0.233E+00    0.31       1.0  T
 118     -8.9085306 -0.129275E-03  0.218E+00    0.31       1.0  T
 119     -8.9103527 -0.182211E-02  0.195E+00    0.31       1.0  T
 120     -8.9106451 -0.292339E-03  0.182E+00    0.31       1.0  T
 121     -8.9108102 -0.165184E-03  0.180E+00    0.31       1.0  T
 122     -8.9102325  0.577725E-03  0.197E+00    0.30       1.0  T
 123     -8.9099564  0.276084E-03  0.201E+00    0.30       1.0  T
 124     -8.9113117 -0.135525E-02  0.182E+00    0.30       1.0  T
 125     -8.9127993 -0.148758E-02  0.153E+00    0.30       1.0  T
 126     -8.9139347 -0.113548E-02  0.123E+00    0.30       1.0  T
 127     -8.9147446 -0.809854E-03  0.111E+00    0.30       1.0  T
 128     -8.9155549 -0.810284E-03  0.100E+00    0.30       1.0  T
 129     -8.9165145 -0.959582E-03  0.904E-01    0.30       1.0  T
 130     -8.9174494 -0.934971E-03  0.805E-01    0.30       1.0  T
 131     -8.9180242 -0.574797E-03  0.673E-01    0.30       1.0  T
 132     -8.9183626 -0.338348E-03  0.637E-01    0.29       1.0  T
 133     -8.9185225 -0.159866E-03  0.663E-01    0.29       1.0  T
 134     -8.9185245 -0.201432E-05  0.698E-01    0.29       1.0  T
 135     -8.9184572  0.672283E-04  0.721E-01    0.28       1.0  T
 136     -8.9185543 -0.970156E-04  0.641E-01    0.28       1.0  T
 137     -8.9185427  0.115925E-04  0.594E-01    0.28       1.0  T
 138     -8.9187226 -0.179917E-03  0.394E-01    0.28       1.0  T
 139     -8.9185770  0.145604E-03  0.417E-01    0.28       1.0  T
 140     -8.9186923 -0.115353E-03  0.317E-01    0.28       1.0  T
 141     -8.9183350  0.357365E-03  0.360E-01    0.28       1.0  T
 142     -8.9184053 -0.703027E-04  0.282E-01    0.28       1.0  T
 143     -8.9181684  0.236816E-03  0.281E-01    0.28       1.0  T
 144     -8.9182069 -0.384614E-04  0.225E-01    0.28       1.0  T
 145     -8.9180875  0.119451E-03  0.223E-01    0.27       1.0  T
 146     -8.9180945 -0.699324E-05  0.207E-01    0.27       1.0  T
 147     -8.9180110  0.834903E-04  0.220E-01    0.27       1.0  T
 148     -8.9181642 -0.153246E-03  0.194E-01    0.27       1.0  T
 149     -8.9183015 -0.137299E-03  0.179E-01    0.27       1.0  T
 150     -8.9186117 -0.310218E-03  0.113E-01    0.27       1.0  T
 151     -8.9186798 -0.680824E-04  0.102E-01    0.27       1.0  T
 152     -8.9187924 -0.112545E-03  0.672E-02    0.28       1.0  T
 153     -8.9188152 -0.228931E-04  0.644E-02    0.28       1.0  T
 154     -8.9188448 -0.295155E-04  0.454E-02    0.28       1.0  T
 155     -8.9188550 -0.102182E-04  0.349E-02    0.28       1.0  T
 156     -8.9188600 -0.500843E-05  0.238E-02    0.28       1.4  T
 157     -8.9188610 -0.103421E-05  0.179E-02    0.28       1.9  T
 158     -8.9188612 -0.158159E-06  0.154E-02    0.28       2.2  T
 159     -8.9188612 -0.508024E-07  0.142E-02    0.28       2.4  T
 160     -8.9188613 -0.765106E-07  0.124E-02    0.28       2.7  T
 161     -8.9188615 -0.154588E-06  0.531E-03    0.28       6.3  T
 162     -8.9188615 -0.404968E-07  0.407E-03    0.28       8.2  T
 163     -8.9188615  0.329732E-07  0.539E-03    0.28       6.2  T
 164     -8.9188615 -0.343532E-07  0.382E-03    0.28       8.7  T
 165     -8.9188615  0.301456E-07  0.455E-03    0.28       7.3  T
 166     -8.9188615 -0.370986E-07  0.306E-03    0.28      10.9  T
 167     -8.9188615 -0.150059E-08  0.282E-03    0.28      11.8  T
 168     -8.9188615  0.185578E-08  0.261E-03    0.28      12.8  T
 169     -8.9188615 -0.164194E-07  0.993E-04    0.28      33.6  T
 170     -8.9188615 -0.173296E-08  0.457E-04    0.28      72.9  T

   *** convergence criteria satisfied after 170 iterations ***

         #    Occupation            Energy/Eh            Energy/eV
      -------------------------------------------------------------
         1        2.0000           -0.6138727             -16.7043
       ...           ...                  ...                  ...
         4        2.0000           -0.4650238             -12.6539
         5        2.0000           -0.3701948             -10.0735
         6        2.0000           -0.3534784              -9.6186
         7        2.0000           -0.3204708              -8.7205
         8        2.0000           -0.2990634              -8.1379
         9        2.0000           -0.2907616              -7.9120
        10        1.9908           -0.2605214              -7.0891 (HOMO)
        11        0.0092           -0.2502983              -6.8110 (LUMO)
        12                         -0.2392362              -6.5099
        13                         -0.2280577              -6.2058
        14                         -0.2021661              -5.5012
        15                         -0.1965521              -5.3485
       ...                                ...                  ...
        24                          0.4721633              12.8482
      -------------------------------------------------------------
                  HL-Gap            0.0102231 Eh            0.2782 eV
             Fermi-level           -0.2554099 Eh           -6.9501 eV

 SCC (total)                   0 d,  0 h,  0 min,  0.071 sec
 SCC setup                      ...        0 min,  0.000 sec (  0.073%)
 Dispersion                     ...        0 min,  0.000 sec (  0.173%)
 classical contributions        ...        0 min,  0.000 sec (  0.103%)
 integral evaluation            ...        0 min,  0.000 sec (  0.251%)
 iterations                     ...        0 min,  0.070 sec ( 98.617%)
 molecular gradient             ...        0 min,  0.001 sec (  0.716%)
 printout                       ...        0 min,  0.000 sec (  0.051%)

         :::::::::::::::::::::::::::::::::::::::::::::::::::::
         ::                     SUMMARY                     ::
         :::::::::::::::::::::::::::::::::::::::::::::::::::::
         :: total energy              -8.864066405684 Eh    ::
         :: gradient norm              0.301843044840 Eh/a0 ::
         :: HOMO-LUMO gap              0.278185294887 eV    ::
         ::.................................................::
         :: SCC energy                -8.918861527872 Eh    ::
         :: -> isotropic ES           -0.077732709959 Eh    ::
         :: -> anisotropic ES          0.011074477198 Eh    ::
         :: -> anisotropic XC         -0.015946897097 Eh    ::
         :: -> dispersion             -0.007358620697 Eh    ::
         :: repulsion energy           0.054777199370 Eh    ::
         :: add. restraining           0.000000000000 Eh    ::
         :: total charge              -0.000000000000 e     ::
         :::::::::::::::::::::::::::::::::::::::::::::::::::::

      ----------------------------------------------------------- 
     |                   =====================                   |
     |                        A N C O P T                        |
     |                   =====================                   |
     |               Approximate Normal Coordinate               |
     |                Rational Function Optimizer                |
      ----------------------------------------------------------- 

          ...................................................
          :                      SETUP                      :
          :.................................................:
          :   optimization level            normal          :
          :   max. optcycles                   200          :
          :   ANC micro-cycles                  20          :
          :   degrees of freedom                21          :
          :.................................................:
          :   RF solver                   davidson          :
          :   write xtbopt.log                true          :
          :   linear?                        false          :
          :   energy convergence         0.5000000E-05 Eh   :
          :   grad. convergence          0.1000000E-02 Eh/α :
          :   maximium RF displ.         1.0000000          :
          :   Hlow (freq-cutoff)         0.1000000E-01      :
          :   Hmax (freq-cutoff)         5.0000000          :
          :   S6 in model hess.         20.0000000          :
          ...................................................

generating ANC from model Hessian ...
Using Lindh-Hessian (1995)
 Shifting diagonal of input Hessian by    1.2415286068462511E-002
 Lowest  eigenvalues of input Hessian
    0.010000    0.010444    0.011897    0.012204    0.000000    0.000000
    0.000000    0.000000    0.000000    0.000000    0.012533    0.012848
    0.013697    0.021832    0.023464    0.030477    0.038560    0.041730
 Highest eigenvalues
    0.213869    0.249751    0.259470    0.281735    0.308622    0.344279


........................................................................
.............................. CYCLE    1 ..............................
........................................................................
   1     -8.9188615 -0.891886E+01  0.530E-05    0.28       0.0  T
   2     -8.9188615  0.139893E-08  0.613E-04    0.28      54.4  T
   3     -8.9188615  0.525853E-08  0.126E-03    0.28      26.5  T
   4     -8.9188615  0.462554E-09  0.127E-03    0.28      26.3  T
   5     -8.9188615 -0.679820E-08  0.275E-04    0.28     121.1  T
     SCC iter.                  ...        0 min,  0.001 sec
     gradient                   ...        0 min,  0.000 sec
 * total energy  :    -8.8640664 Eh     change       -0.1470823E-11 Eh
   gradient norm :     0.3013903 Eh/α   predicted     0.0000000E+00 (-100.00%)
   displ. norm   :     0.8355772 α      lambda       -0.2400028E+00
   maximum displ.:     0.4422865 α      in ANC's #8, #17, #12, ...

........................................................................
.............................. CYCLE    2 ..............................
........................................................................
   1     -9.0199422 -0.901994E+01  0.430E+00    0.50       0.0  T
   2      5.8643365  0.148843E+02  0.183E+01    0.20       1.0  T
   3     -8.5984214 -0.144628E+02  0.633E+00    0.90       1.0  T
   4     -8.9282964 -0.329875E+00  0.405E+00    0.85       1.0  T
   5     -7.0368485  0.189145E+01  0.100E+01    0.53       1.0  T
   6     -8.8307382 -0.179389E+01  0.324E+00    0.97       1.0  T
   7     -8.9319699 -0.101232E+00  0.254E+00    0.58       1.0  T
   8     -8.9930657 -0.610959E-01  0.169E+00    0.63       1.0  T
   9     -8.9890864  0.397933E-02  0.156E+00    0.65       1.0  T
  10     -8.9887730  0.313359E-03  0.157E+00    0.65       1.0  T
  11     -9.0387866 -0.500135E-01  0.134E+00    0.47       1.0  T
  12     -9.0396505 -0.863915E-03  0.129E+00    0.47       1.0  T
  13     -9.0421146 -0.246409E-02  0.143E+00    0.45       1.0  T
  14     -9.0723937 -0.302792E-01  0.141E+00    0.30       1.0  T
  15     -9.0730467 -0.652943E-03  0.148E+00    0.30       1.0  T
  16     -9.0755978 -0.255114E-02  0.107E+00    0.28       1.0  T
  17     -9.0774850 -0.188720E-02  0.155E+00    0.24       1.0  T
  18     -9.0778037 -0.318675E-03  0.155E+00    0.24       1.0  T
  19     -9.0736181  0.418553E-02  0.231E+00    0.22       1.0  T
  20     -9.0738231 -0.204930E-03  0.228E+00    0.22       1.0  T
  21     -9.0740233 -0.200261E-03  0.212E+00    0.22       1.0  T
  22     -9.0773455 -0.332218E-02  0.128E+00    0.23       1.0  T
  23     -9.0776996 -0.354078E-03  0.107E+00    0.23       1.0  T
  24     -9.0783781 -0.678556E-03  0.644E-01    0.24       1.0  T
  25     -9.0788168 -0.438694E-03  0.301E-01    0.24       1.0  T
  26     -9.0788672 -0.503652E-04  0.191E-01    0.25       1.0  T
  27     -9.0788800 -0.127573E-04  0.125E-01    0.25       1.0  T
  28     -9.0788754  0.454817E-05  0.435E-02    0.25       1.0  T
  29     -9.0788653  0.101020E-04  0.519E-02    0.25       1.0  T
  30     -9.0788823 -0.169943E-04  0.369E-02    0.25       1.0  T
  31     -9.0788947 -0.123695E-04  0.242E-02    0.25       1.4  T
  32     -9.0788971 -0.237853E-05  0.212E-02    0.25       1.6  T
  33     -9.0789020 -0.491522E-05  0.145E-02    0.25       2.3  T
  34     -9.0789033 -0.135108E-05  0.948E-03    0.25       3.5  T
  35     -9.0789037 -0.334092E-06  0.859E-03    0.25       3.9  T
  36     -9.0789037 -0.738993E-07  0.730E-03    0.25       4.6  T
  37     -9.0789039 -0.194506E-06  0.352E-03    0.25       9.5  T
  38     -9.0789040 -0.311675E-07  0.212E-03    0.25      15.7  T
  39     -9.0789040 -0.106151E-07  0.105E-04    0.25     316.3  T
  40     -9.0789040 -0.124336E-09  0.900E-05    0.25     370.3  T
     SCC iter.                  ...        0 min,  0.007 sec
     gradient                   ...        0 min,  0.000 sec
 * total energy  :    -9.0372907 Eh     change       -0.1732243E+00 Eh
   gradient norm :     0.2250264 Eh/α   predicted    -0.2037851E+00 (  17.64%)
   displ. norm   :     0.9033441 α      lambda       -0.1990346E+00
   maximum displ.:     0.5120285 α      in ANC's #18, #17, #13, ...

........................................................................
.............................. CYCLE    3 ..............................
........................................................................
   1     -8.4012050 -0.840121E+01  0.143E+01    0.45       0.0  T
   2     -7.0127151  0.138849E+01  0.230E+01    0.56       1.0  T
   3     -7.9609423 -0.948227E+00  0.126E+01    1.00       1.0  T
   4     -8.6365747 -0.675632E+00  0.116E+01    1.08       1.0  T
   5     -9.0018539 -0.365279E+00  0.745E+00    1.13       1.0  T
   6     -9.0197777 -0.179238E-01  0.721E+00    0.36       1.0  T
   7     -9.0912102 -0.714325E-01  0.644E+00    0.50       1.0  T
   8     -8.8319178  0.259292E+00  0.989E+00    0.20       1.0  T
   9     -8.9730637 -0.141146E+00  0.870E+00    0.18       1.0  T
  10     -8.9650521  0.801158E-02  0.878E+00    0.19       1.0  T
  11     -9.0329808 -0.679286E-01  0.687E+00    0.43       1.0  T
  12     -9.2160470 -0.183066E+00  0.415E+00    0.27       1.0  T
  13     -9.2334229 -0.173759E-01  0.375E+00    0.27       1.0  T
  14     -9.3031162 -0.696933E-01  0.797E-01    0.21       1.0  T
  15     -9.2884636  0.146526E-01  0.179E+00    0.23       1.0  T
  16     -9.2849825  0.348116E-02  0.220E+00    0.20       1.0  T
  17     -9.3017128 -0.167303E-01  0.101E+00    0.21       1.0  T
  18     -9.3046193 -0.290649E-02  0.533E-01    0.21       1.0  T
  19     -9.3052536 -0.634306E-03  0.253E-01    0.22       1.0  T
  20     -9.3046354  0.618184E-03  0.422E-01    0.22       1.0  T
  21     -9.3054467 -0.811266E-03  0.123E-01    0.22       1.0  T
  22     -9.3053731  0.736082E-04  0.155E-01    0.22       1.0  T
  23     -9.3054400 -0.669509E-04  0.100E-01    0.22       1.0  T
  24     -9.3054460 -0.602395E-05  0.621E-02    0.22       1.0  T
  25     -9.3053735  0.725584E-04  0.135E-01    0.22       1.0  T
  26     -9.3053658  0.764254E-05  0.140E-01    0.22       1.0  T
  27     -9.3054253 -0.594768E-04  0.829E-02    0.22       1.0  T
  28     -9.3054409 -0.156308E-04  0.585E-02    0.22       1.0  T
  29     -9.3054504 -0.949515E-05  0.352E-02    0.22       1.0  T
  30     -9.3054549 -0.450567E-05  0.133E-02    0.22       2.5  T
  31     -9.3054556 -0.619369E-06  0.325E-03    0.22      10.3  T
  32     -9.3054556  0.335506E-08  0.171E-03    0.22      19.5  T
  33     -9.3054556 -0.752029E-08  0.134E-03    0.22      25.0  T
  34     -9.3054556 -0.598032E-09  0.149E-03    0.22      22.3  T
  35     -9.3054556  0.131830E-08  0.142E-03    0.22      23.5  T
  36     -9.3054556 -0.418831E-08  0.791E-04    0.22      42.1  T
  37     -9.3054556 -0.857090E-09  0.389E-04    0.22      85.6  T
     SCC iter.                  ...        0 min,  0.006 sec
     gradient                   ...        0 min,  0.001 sec
 * total energy  :    -9.1874874 Eh     change       -0.1501967E+00 Eh
   gradient norm :     0.1177120 Eh/α   predicted    -0.1807265E+00 (  20.33%)
   displ. norm   :     0.8545906 α      lambda       -0.9232118E-01
   maximum displ.:     0.4654385 α      in ANC's #9, #13, #2, ...

........................................................................
.............................. CYCLE    4 ..............................
........................................................................
   1     -9.2410115 -0.924101E+01  0.657E+00    0.68       0.0  T
   2     11.9814931  0.212225E+02  0.230E+01    0.68       1.0  T
   3     -8.2059554 -0.201874E+02  0.154E+01    0.46       1.0  T
   4     -9.3450771 -0.113912E+01  0.214E+00    0.28       1.0  T
   5     -9.3601851 -0.151081E-01  0.146E+00    0.25       1.0  T
   6     -9.3056118  0.545733E-01  0.428E+00    0.40       1.0  T
   7     -9.3540780 -0.484662E-01  0.114E+00    0.28       1.0  T
   8     -9.3627547 -0.867671E-02  0.168E+00    0.30       1.0  T
   9     -9.3607767  0.197800E-02  0.201E+00    0.32       1.0  T
  10     -9.3601956  0.581081E-03  0.202E+00    0.32       1.0  T
  11     -9.3654320 -0.523638E-02  0.136E+00    0.30       1.0  T
  12     -9.3686021 -0.317011E-02  0.611E-01    0.29       1.0  T
  13     -9.3697982 -0.119608E-02  0.308E-01    0.29       1.0  T
  14     -9.3700107 -0.212517E-03  0.187E-01    0.29       1.0  T
  15     -9.3706012 -0.590522E-03  0.663E-01    0.29       1.0  T
  16     -9.3705625  0.387435E-04  0.653E-01    0.29       1.0  T
  17     -9.3706470 -0.844839E-04  0.445E-01    0.29       1.0  T
  18     -9.3706635 -0.165409E-04  0.365E-01    0.29       1.0  T
  19     -9.3706705 -0.700388E-05  0.289E-01    0.29       1.0  T
  20     -9.3706834 -0.128974E-04  0.225E-01    0.29       1.0  T
  21     -9.3706976 -0.141569E-04  0.158E-01    0.29       1.0  T
  22     -9.3707072 -0.966593E-05  0.936E-02    0.29       1.0  T
  23     -9.3707111 -0.383925E-05  0.472E-02    0.29       1.0  T
  24     -9.3707121 -0.107101E-05  0.187E-02    0.29       1.8  T
  25     -9.3707123 -0.186783E-06  0.136E-03    0.29      24.5  T
  26     -9.3707123  0.198725E-08  0.253E-03    0.29      13.2  T
  27     -9.3707123 -0.477038E-08  0.171E-04    0.29     194.8  T
  28     -9.3707123  0.173941E-10  0.476E-04    0.29      70.0  T
     SCC iter.                  ...        0 min,  0.005 sec
     gradient                   ...        0 min,  0.001 sec
 * total energy  :    -9.2546084 Eh     change       -0.6712099E-01 Eh
   gradient norm :     0.0656243 Eh/α   predicted    -0.7987283E-01 (  19.00%)
   displ. norm   :     0.8085166 α      lambda       -0.4636512E-01
   maximum displ.:     0.4419023 α      in ANC's #2, #9, #1, ...

........................................................................
.............................. CYCLE    5 ..............................
........................................................................
   1     -9.4174495 -0.941745E+01  0.279E+00    0.44       0.0  T
   2     -9.2097880  0.207661E+00  0.680E+00    1.68       1.0  T
   3     -9.4210617 -0.211274E+00  0.228E+00    0.48       1.0  T
   4     -9.3894323  0.316295E-01  0.187E+00    0.47       1.0  T
   5     -9.3384578  0.509744E-01  0.375E+00    0.40       1.0  T
   6     -9.4219163 -0.834585E-01  0.113E+00    0.48       1.0  T
   7     -9.4146083  0.730804E-02  0.223E+00    0.40       1.0  T
   8     -9.4307464 -0.161382E-01  0.125E+00    0.42       1.0  T
   9     -9.4278542  0.289220E-02  0.146E+00    0.41       1.0  T
  10     -9.4343114 -0.645716E-02  0.792E-01    0.42       1.0  T
  11     -9.4368641 -0.255269E-02  0.307E-01    0.45       1.0  T
  12     -9.4370312 -0.167152E-03  0.232E-01    0.45       1.0  T
  13     -9.4372159 -0.184704E-03  0.155E-01    0.45       1.0  T
  14     -9.4372759 -0.600004E-04  0.108E-01    0.45       1.0  T
  15     -9.4373267 -0.507889E-04  0.401E-02    0.44       1.0  T
  16     -9.4373290 -0.228706E-05  0.330E-02    0.44       1.0  T
  17     -9.4373342 -0.513181E-05  0.758E-04    0.44      44.0  T
  18     -9.4373342  0.355336E-08  0.157E-03    0.44      21.3  T
  19     -9.4373342 -0.100784E-07  0.458E-04    0.44      72.8  T
  20     -9.4373342  0.422619E-08  0.106E-03    0.44      31.6  T
  21     -9.4373342 -0.323552E-08  0.664E-04    0.44      50.2  T
     SCC iter.                  ...        0 min,  0.004 sec
     gradient                   ...        0 min,  0.001 sec
 * total energy  :    -9.2944592 Eh     change       -0.3985079E-01 Eh
   gradient norm :     0.0814824 Eh/α   predicted    -0.3833697E-01 (  -3.80%)
   displ. norm   :     0.8880068 α      lambda       -0.4909756E-01
   maximum displ.:     0.4808735 α      in ANC's #2, #1, #12, ...

........................................................................
.............................. CYCLE    6 ..............................
........................................................................
   1     -9.4537406 -0.945374E+01  0.351E+00    0.32       0.0  T
   2     -9.2443473  0.209393E+00  0.598E+00    1.08       1.0  T
   3     -9.3244548 -0.801076E-01  0.487E+00    0.72       1.0  T
   4     -9.3851781 -0.607232E-01  0.294E+00    0.15       1.0  T
   5     -9.3514125  0.337655E-01  0.440E+00    0.91       1.0  T
   6     -9.4308465 -0.794340E-01  0.229E+00    0.65       1.0  T
   7     -9.4632192 -0.323727E-01  0.123E+00    0.29       1.0  T
   8     -9.4676766 -0.445740E-02  0.102E+00    0.29       1.0  T
   9     -9.4603145  0.736207E-02  0.110E+00    0.28       1.0  T
  10     -9.4729346 -0.126201E-01  0.531E-01    0.35       1.0  T
  11     -9.4690393  0.389527E-02  0.812E-01    0.34       1.0  T
  12     -9.4706377 -0.159835E-02  0.713E-01    0.34       1.0  T
  13     -9.4724999 -0.186223E-02  0.565E-01    0.35       1.0  T
  14     -9.4758106 -0.331074E-02  0.161E-01    0.38       1.0  T
  15     -9.4754172  0.393436E-03  0.198E-01    0.40       1.0  T
  16     -9.4751497  0.267549E-03  0.244E-01    0.40       1.0  T
  17     -9.4756073 -0.457588E-03  0.151E-01    0.39       1.0  T
  18     -9.4758223 -0.215024E-03  0.781E-02    0.38       1.0  T
  19     -9.4758736 -0.513604E-04  0.471E-02    0.38       1.0  T
  20     -9.4758847 -0.111115E-04  0.361E-02    0.38       1.0  T
  21     -9.4758922 -0.746711E-05  0.250E-02    0.38       1.3  T
  22     -9.4758983 -0.605885E-05  0.106E-02    0.38       3.1  T
  23     -9.4758995 -0.121414E-05  0.385E-03    0.38       8.7  T
  24     -9.4758997 -0.172938E-06  0.119E-03    0.38      27.9  T
  25     -9.4758997 -0.126530E-07  0.667E-04    0.38      50.0  T
  26     -9.4758997 -0.561231E-08  0.468E-05    0.38     713.0  T
     SCC iter.                  ...        0 min,  0.004 sec
     gradient                   ...        0 min,  0.000 sec
 * total energy  :    -9.3345595 Eh     change       -0.4010033E-01 Eh
   gradient norm :     0.1034484 Eh/α   predicted    -0.4390687E-01 (   9.49%)
   displ. norm   :     0.8305994 α      lambda       -0.5823906E-01
   maximum displ.:     0.3702805 α      in ANC's #21, #14, #12, ...

........................................................................
.............................. CYCLE    7 ..............................
........................................................................
   1     -9.5097950 -0.950980E+01  0.244E+00    0.45       0.0  T
   2     -1.0158456  0.849395E+01  0.188E+01    0.49       1.0  T
   3     -9.4762086 -0.846036E+01  0.285E+00    0.43       1.0  T
   4     -9.5144627 -0.382540E-01  0.217E+00    0.33       1.0  T
   5     -9.4585702  0.558925E-01  0.283E+00    0.25       1.0  T
   6     -9.4997912 -0.412210E-01  0.188E+00    0.15       1.0  T
   7     -8.5726637  0.927127E+00  0.984E+00    0.15       1.0  T
   8     -8.5677714  0.489238E-02  0.986E+00    0.14       1.0  T
   9     -8.3202898  0.247482E+00  0.112E+01    0.15       1.0  T
  10     -8.6295189 -0.309229E+00  0.992E+00    0.12       1.0  T
  11     -9.0339484 -0.404430E+00  0.624E+00    0.19       1.0  T
  12     -9.4369383 -0.402990E+00  0.239E+00    0.27       1.0  T
  13     -9.5329782 -0.960400E-01  0.225E+00    0.45       1.0  T
  14     -9.5310791  0.189915E-02  0.967E-01    0.32       1.0  T
  15     -9.4982027  0.328764E-01  0.175E+00    0.22       1.0  T
  16     -9.4968634  0.133932E-02  0.180E+00    0.22       1.0  T
  17     -9.5213286 -0.244652E-01  0.110E+00    0.29       1.0  T
  18     -9.5321240 -0.107954E-01  0.894E-01    0.32       1.0  T
  19     -9.5324004 -0.276418E-03  0.105E+00    0.34       1.0  T
  20     -9.5312379  0.116247E-02  0.118E+00    0.35       1.0  T
  21     -9.5356274 -0.438949E-02  0.611E-01    0.33       1.0  T
  22     -9.5360844 -0.457035E-03  0.369E-01    0.29       1.0  T
  23     -9.5363460 -0.261584E-03  0.352E-01    0.29       1.0  T
  24     -9.5364628 -0.116750E-03  0.347E-01    0.29       1.0  T
  25     -9.5370756 -0.612817E-03  0.387E-01    0.30       1.0  T
  26     -9.5371818 -0.106227E-03  0.332E-01    0.31       1.0  T
  27     -9.5372324 -0.505766E-04  0.134E-01    0.32       1.0  T
  28     -9.5372502 -0.178352E-04  0.713E-02    0.32       1.0  T
  29     -9.5372417  0.851842E-05  0.464E-02    0.32       1.0  T
  30     -9.5372404  0.129610E-05  0.404E-02    0.32       1.0  T
  31     -9.5372514 -0.109430E-04  0.346E-02    0.32       1.0  T
  32     -9.5372597 -0.837739E-05  0.380E-02    0.32       1.0  T
  33     -9.5372628 -0.308470E-05  0.332E-02    0.33       1.0  T
  34     -9.5372649 -0.209454E-05  0.243E-02    0.32       1.4  T
  35     -9.5372665 -0.162668E-05  0.190E-02    0.32       1.8  T
  36     -9.5372680 -0.145026E-05  0.135E-02    0.32       2.5  T
  37     -9.5372688 -0.834753E-06  0.890E-03    0.32       3.7  T
  38     -9.5372693 -0.447812E-06  0.671E-03    0.32       5.0  T
  39     -9.5372697 -0.412781E-06  0.468E-03    0.32       7.1  T
  40     -9.5372700 -0.339031E-06  0.171E-03    0.32      19.5  T
  41     -9.5372701 -0.423659E-07  0.102E-03    0.32      32.6  T
  42     -9.5372701 -0.101199E-07  0.123E-03    0.32      27.2  T
  43     -9.5372701 -0.115471E-07  0.478E-04    0.32      69.8  T
  44     -9.5372701 -0.106356E-08  0.236E-04    0.32     141.2  T
     SCC iter.                  ...        0 min,  0.007 sec
     gradient                   ...        0 min,  0.001 sec
 * total energy  :    -9.3671641 Eh     change       -0.3260459E-01 Eh
   gradient norm :     0.1413084 Eh/α   predicted    -0.4920898E-01 (  50.93%)
   displ. norm   :     0.5876655 α      lambda       -0.6132748E-01
   maximum displ.:     0.2534710 α      in ANC's #14, #11, #21, ...

........................................................................
.............................. CYCLE    8 ..............................
........................................................................
   1     -9.5349115 -0.953491E+01  0.211E+00    0.54       0.0  T
   2     -5.7972057  0.373771E+01  0.163E+01    0.37       1.0  T
   3     -9.0566598 -0.325945E+01  0.695E+00    0.22       1.0  T
   4     -9.3232749 -0.266615E+00  0.451E+00    0.33       1.0  T
   5     -9.2818891  0.413858E-01  0.553E+00    0.22       1.0  T
   6     -9.3679014 -0.860123E-01  0.477E+00    0.24       1.0  T
   7     -8.9923485  0.375553E+00  0.850E+00    0.37       1.0  T
   8     -9.5247056 -0.532357E+00  0.218E+00    0.51       1.0  T
   9     -9.5327916 -0.808600E-02  0.155E+00    0.37       1.0  T
  10     -9.5290986  0.369300E-02  0.179E+00    0.37       1.0  T
  11     -9.5297279 -0.629285E-03  0.176E+00    0.37       1.0  T
  12     -9.5295798  0.148118E-03  0.176E+00    0.37       1.0  T
  13     -9.5355093 -0.592952E-02  0.193E+00    0.40       1.0  T
  14     -9.5339472  0.156213E-02  0.184E+00    0.39       1.0  T
  15     -9.5283525  0.559465E-02  0.131E+00    0.34       1.0  T
  16     -9.5303383 -0.198572E-02  0.112E+00    0.33       1.0  T
  17     -9.5288035  0.153473E-02  0.106E+00    0.30       1.0  T
  18     -9.5300245 -0.122093E-02  0.996E-01    0.30       1.0  T
  19     -9.5356854 -0.566097E-02  0.762E-01    0.31       1.0  T
  20     -9.5369549 -0.126944E-02  0.688E-01    0.32       1.0  T
  21     -9.5416810 -0.472610E-02  0.304E-01    0.36       1.0  T
  22     -9.5423500 -0.669063E-03  0.185E-01    0.38       1.0  T
  23     -9.5426186 -0.268595E-03  0.137E-01    0.39       1.0  T
  24     -9.5427209 -0.102313E-03  0.111E-01    0.39       1.0  T
  25     -9.5427467 -0.257691E-04  0.899E-02    0.39       1.0  T
  26     -9.5427914 -0.446919E-04  0.474E-02    0.39       1.0  T
  27     -9.5428070 -0.156545E-04  0.221E-02    0.39       1.5  T
  28     -9.5428112 -0.420076E-05  0.493E-03    0.39       6.8  T
  29     -9.5428114 -0.125819E-06  0.339E-03    0.39       9.8  T
  30     -9.5428114 -0.596600E-07  0.286E-03    0.39      11.7  T
  31     -9.5428114 -0.139871E-07  0.114E-03    0.39      29.4  T
  32     -9.5428115 -0.860070E-08  0.365E-04    0.39      91.3  T
  33     -9.5428115 -0.109068E-11  0.239E-04    0.39     139.6  T
     SCC iter.                  ...        0 min,  0.006 sec
     gradient                   ...        0 min,  0.000 sec
 * total energy  :    -9.3836499 Eh     change       -0.1648576E-01 Eh
   gradient norm :     0.1117729 Eh/α   predicted    -0.4125350E-01 ( 150.24%)
   displ. norm   :     0.6547252 α      lambda       -0.4471249E-01
   maximum displ.:     0.3472440 α      in ANC's #4, #10, #6, ...

........................................................................
.............................. CYCLE    9 ..............................
........................................................................
   1     -9.5327909 -0.953279E+01  0.318E+00    0.63       0.0  T
   2     -9.3556716  0.177119E+00  0.463E+00    2.02       1.0  T
   3     -7.3744512  0.198122E+01  0.138E+01    0.55       1.0  T
   4     -9.4153800 -0.204093E+01  0.490E+00    0.56       1.0  T
   5     -9.0111759  0.404204E+00  0.820E+00    0.40       1.0  T
   6     -9.0611444 -0.499684E-01  0.734E+00    0.47       1.0  T
   7     -9.1637713 -0.102627E+00  0.684E+00    0.47       1.0  T
   8     -9.5118200 -0.348049E+00  0.413E+00    0.84       1.0  T
   9     -9.4899236  0.218964E-01  0.383E+00    0.98       1.0  T
  10     -9.5004080 -0.104844E-01  0.322E+00    0.94       1.0  T
  11     -9.5154689 -0.150609E-01  0.215E+00    0.89       1.0  T
  12     -9.5381631 -0.226942E-01  0.838E-01    0.79       1.0  T
  13     -9.5395123 -0.134927E-02  0.798E-01    0.78       1.0  T
  14     -9.5410700 -0.155766E-02  0.716E-01    0.77       1.0  T
  15     -9.5422011 -0.113107E-02  0.646E-01    0.76       1.0  T
  16     -9.5423029 -0.101865E-03  0.627E-01    0.76       1.0  T
  17     -9.5426343 -0.331392E-03  0.573E-01    0.76       1.0  T
  18     -9.5435969 -0.962575E-03  0.500E-01    0.75       1.0  T
  19     -9.5440327 -0.435748E-03  0.463E-01    0.75       1.0  T
  20     -9.5444054 -0.372785E-03  0.430E-01    0.75       1.0  T
  21     -9.5461811 -0.177571E-02  0.202E-01    0.72       1.0  T
  22     -9.5464117 -0.230566E-03  0.141E-01    0.72       1.0  T
  23     -9.5465223 -0.110631E-03  0.879E-02    0.72       1.0  T
  24     -9.5465705 -0.481918E-04  0.452E-02    0.71       1.0  T
  25     -9.5465854 -0.148264E-04  0.135E-02    0.71       2.5  T
  26     -9.5465867 -0.135718E-05  0.296E-03    0.71      11.3  T
  27     -9.5465867 -0.270051E-07  0.108E-03    0.71      31.0  T
  28     -9.5465867  0.390079E-08  0.136E-03    0.71      24.4  T
  29     -9.5465868 -0.699659E-08  0.611E-04    0.71      54.5  T
  30     -9.5465868 -0.776458E-09  0.246E-04    0.71     135.7  T
     SCC iter.                  ...        0 min,  0.004 sec
     gradient                   ...        0 min,  0.001 sec
 * total energy  :    -9.3976465 Eh     change       -0.1399666E-01 Eh
   gradient norm :     0.1032790 Eh/α   predicted    -0.3193958E-01 ( 128.19%)
   displ. norm   :     0.6458615 α      lambda       -0.3635758E-01
   maximum displ.:     0.2973102 α      in ANC's #2, #7, #10, ...

........................................................................
.............................. CYCLE   10 ..............................
........................................................................
   1     -9.5663225 -0.956632E+01  0.380E+00    0.73       0.0  T
   2     -5.0294530  0.453687E+01  0.168E+01    0.53       1.0  T
   3     -9.4415070 -0.441205E+01  0.441E+00    1.59       1.0  T
   4     -9.4674877 -0.259807E-01  0.360E+00    1.44       1.0  T
   5     -9.0000891  0.467399E+00  0.461E+00    1.31       1.0  T
   6     -9.4617838 -0.461695E+00  0.299E+00    1.19       1.0  T
   7     -9.5122663 -0.504825E-01  0.225E+00    1.05       1.0  T
   8     -9.5268614 -0.145951E-01  0.194E+00    1.00       1.0  T
   9     -9.5302188 -0.335743E-02  0.186E+00    0.98       1.0  T
  10     -9.5337011 -0.348222E-02  0.179E+00    0.96       1.0  T
  11     -9.5581664 -0.244654E-01  0.128E+00    0.83       1.0  T
  12     -9.5687341 -0.105677E-01  0.967E-01    0.76       1.0  T
  13     -9.5754431 -0.670897E-02  0.640E-01    0.72       1.0  T
  14     -9.5798932 -0.445014E-02  0.190E-01    0.65       1.0  T
  15     -9.5793998  0.493396E-03  0.263E-01    0.63       1.0  T
  16     -9.5767676  0.263220E-02  0.476E-01    0.60       1.0  T
  17     -9.5799473 -0.317966E-02  0.244E-01    0.64       1.0  T
  18     -9.5793223  0.625023E-03  0.208E-01    0.62       1.0  T
  19     -9.5795692 -0.246932E-03  0.163E-01    0.63       1.0  T
  20     -9.5798872 -0.318041E-03  0.750E-02    0.64       1.0  T
  21     -9.5799502 -0.629814E-04  0.328E-02    0.64       1.0  T
  22     -9.5799638 -0.135476E-04  0.714E-03    0.65       4.7  T
  23     -9.5799644 -0.667035E-06  0.217E-03    0.65      15.4  T
  24     -9.5799645 -0.507384E-07  0.747E-04    0.65      44.6  T
  25     -9.5799645 -0.288655E-08  0.211E-04    0.65     158.0  T
     SCC iter.                  ...        0 min,  0.004 sec
     gradient                   ...        0 min,  0.000 sec
 * total energy  :    -9.4163424 Eh     change       -0.1869589E-01 Eh
   gradient norm :     0.0990616 Eh/α   predicted    -0.2576185E-01 (  37.79%)
   displ. norm   :     0.6581705 α      lambda       -0.3604615E-01
   maximum displ.:     0.4351642 α      in ANC's #2, #10, #5, ...

........................................................................
.............................. CYCLE   11 ..............................
........................................................................
   1     -9.5943267 -0.959433E+01  0.289E+00    0.68       0.0  T
   2     -9.5720032  0.223235E-01  0.287E+00    0.50       1.0  T
   3     -9.5032911  0.687121E-01  0.369E+00    1.33       1.0  T
   4     -9.0395760  0.463715E+00  0.838E+00    0.49       1.0  T
   5     -9.5781902 -0.538614E+00  0.160E+00    0.82       1.0  T
   6     -9.5926440 -0.144538E-01  0.823E-01    0.67       1.0  T
   7     -9.5970190 -0.437498E-02  0.470E-01    0.64       1.0  T
   8     -9.5975180 -0.498973E-03  0.512E-01    0.61       1.0  T
   9     -9.5978712 -0.353179E-03  0.307E-01    0.61       1.0  T
  10     -9.5963289  0.154220E-02  0.535E-01    0.66       1.0  T
  11     -9.5963009  0.280147E-04  0.528E-01    0.66       1.0  T
  12     -9.5981225 -0.182153E-02  0.108E-01    0.63       1.0  T
  13     -9.5980828  0.396291E-04  0.102E-01    0.63       1.0  T
  14     -9.5981057 -0.228784E-04  0.821E-02    0.63       1.0  T
  15     -9.5981279 -0.222309E-04  0.590E-02    0.63       1.0  T
  16     -9.5981502 -0.222545E-04  0.205E-02    0.63       1.6  T
  17     -9.5981534 -0.324570E-05  0.157E-03    0.63      21.2  T
  18     -9.5981534 -0.103346E-07  0.403E-04    0.63      82.7  T
  19     -9.5981534  0.820517E-08  0.109E-03    0.63      30.5  T
  20     -9.5981535 -0.916517E-08  0.196E-04    0.63     169.7  T
     SCC iter.                  ...        0 min,  0.003 sec
     gradient                   ...        0 min,  0.001 sec
 * total energy  :    -9.4345442 Eh     change       -0.1820179E-01 Eh
   gradient norm :     0.0559389 Eh/α   predicted    -0.2583046E-01 (  41.91%)
   displ. norm   :     0.6062846 α      lambda       -0.1896690E-01
   maximum displ.:     0.3322213 α      in ANC's #10, #7, #2, ...

........................................................................
.............................. CYCLE   12 ..............................
........................................................................
   1     -9.6049167 -0.960492E+01  0.248E+00    0.69       0.0  T
   2     -7.7014476  0.190347E+01  0.141E+01    0.73       1.0  T
   3     -9.5508330 -0.184939E+01  0.285E+00    0.91       1.0  T
   4     -9.5728616 -0.220287E-01  0.223E+00    0.65       1.0  T
   5     -9.6005532 -0.276916E-01  0.110E+00    0.62       1.0  T
   6     -9.6133384 -0.127852E-01  0.100E+00    0.58       1.0  T
   7     -9.6122613  0.107707E-02  0.121E+00    0.55       1.0  T
   8     -9.6134638 -0.120244E-02  0.805E-01    0.61       1.0  T
   9     -9.6100450  0.341878E-02  0.872E-01    0.64       1.0  T
  10     -9.6145681 -0.452314E-02  0.175E+00    0.56       1.0  T
  11     -9.6145465  0.216889E-04  0.159E+00    0.56       1.0  T
  12     -9.6136526  0.893830E-03  0.468E-01    0.61       1.0  T
  13     -9.6150989 -0.144630E-02  0.115E-01    0.59       1.0  T
  14     -9.6151339 -0.349463E-04  0.541E-02    0.58       1.0  T
  15     -9.6151436 -0.975172E-05  0.304E-02    0.58       1.1  T
  16     -9.6151482 -0.459613E-05  0.178E-02    0.58       1.9  T
  17     -9.6151500 -0.176654E-05  0.144E-02    0.58       2.3  T
  18     -9.6151507 -0.666627E-06  0.782E-03    0.58       4.3  T
  19     -9.6151509 -0.200976E-06  0.548E-03    0.58       6.1  T
  20     -9.6151510 -0.966643E-07  0.278E-03    0.58      12.0  T
  21     -9.6151510 -0.238082E-07  0.827E-04    0.58      40.3  T
  22     -9.6151510 -0.429944E-08  0.244E-04    0.58     136.8  T
     SCC iter.                  ...        0 min,  0.003 sec
     gradient                   ...        0 min,  0.001 sec
 * total energy  :    -9.4370306 Eh     change       -0.2486379E-02 Eh
   gradient norm :     0.0982018 Eh/α   predicted    -0.1296938E-01 ( 421.62%)
   displ. norm   :     0.5877704 α      lambda       -0.2734822E-01
   maximum displ.:     0.3662182 α      in ANC's #1, #7, #10, ...

........................................................................
.............................. CYCLE   13 ..............................
........................................................................
   1     -9.5461444 -0.954614E+01  0.485E+00    0.52       0.0  T
   2     -0.8031629  0.874298E+01  0.177E+01    0.16       1.0  T
   3     -9.1434300 -0.834027E+01  0.634E+00    1.99       1.0  T
   4     -9.3693770 -0.225947E+00  0.462E+00    1.86       1.0  T
   5     -9.2390256  0.130351E+00  0.440E+00    1.40       1.0  T
   6     -9.4200588 -0.181033E+00  0.332E+00    1.38       1.0  T
   7     -9.5044993 -0.844405E-01  0.226E+00    1.06       1.0  T
   8     -9.5129075 -0.840826E-02  0.217E+00    0.98       1.0  T
   9     -9.5325819 -0.196744E-01  0.194E+00    0.87       1.0  T
  10     -9.5884344 -0.558524E-01  0.136E+00    0.62       1.0  T
  11     -9.5876226  0.811765E-03  0.138E+00    0.62       1.0  T
  12     -9.5445697  0.430529E-01  0.330E+00    0.28       1.0  T
  13     -9.5311914  0.133782E-01  0.359E+00    0.28       1.0  T
  14     -9.6166040 -0.854126E-01  0.252E-01    0.43       1.0  T
  15     -9.6064066  0.101974E-01  0.698E-01    0.52       1.0  T
  16     -9.6101898 -0.378323E-02  0.108E+00    0.35       1.0  T
  17     -9.6154434 -0.525359E-02  0.599E-01    0.37       1.0  T
  18     -9.6161761 -0.732770E-03  0.439E-01    0.38       1.0  T
  19     -9.6172391 -0.106292E-02  0.231E-01    0.39       1.0  T
  20     -9.6172288  0.102948E-04  0.224E-01    0.39       1.0  T
  21     -9.6176048 -0.376041E-03  0.376E-02    0.40       1.0  T
  22     -9.6175953  0.945417E-05  0.427E-02    0.40       1.0  T
  23     -9.6176002 -0.488876E-05  0.246E-02    0.40       1.4  T
  24     -9.6176018 -0.155317E-05  0.189E-02    0.40       1.8  T
  25     -9.6176027 -0.930969E-06  0.156E-02    0.40       2.1  T
  26     -9.6176056 -0.284196E-05  0.324E-03    0.40      10.3  T
  27     -9.6176057 -0.141219E-06  0.200E-03    0.40      16.7  T
  28     -9.6176057  0.235626E-07  0.281E-03    0.40      11.9  T
  29     -9.6176057 -0.198880E-07  0.163E-03    0.40      20.5  T
  30     -9.6176057 -0.434091E-08  0.113E-03    0.40      29.6  T
  31     -9.6176057 -0.274521E-08  0.313E-04    0.40     106.5  T
  32     -9.6176057 -0.132149E-09  0.159E-04    0.40     210.2  T
     SCC iter.                  ...        0 min,  0.005 sec
     gradient                   ...        0 min,  0.000 sec
 * total energy  :    -9.4533835 Eh     change       -0.1635292E-01 Eh
   gradient norm :     0.0887420 Eh/α   predicted    -0.1839817E-01 (  12.51%)
   displ. norm   :     0.6815258 α      lambda       -0.3774446E-01
   maximum displ.:     0.3222081 α      in ANC's #4, #6, #9, ...

........................................................................
.............................. CYCLE   14 ..............................
........................................................................
   1     -9.6610757 -0.966108E+01  0.408E+00    0.84       0.0  T
   2     -4.0058303  0.565525E+01  0.176E+01    0.49       1.0  T
   3     -9.4304013 -0.542457E+01  0.486E+00    2.24       1.0  T
   4     -9.5871105 -0.156709E+00  0.312E+00    1.48       1.0  T
   5     -9.4394647  0.147646E+00  0.377E+00    0.79       1.0  T
   6     -9.6399243 -0.200460E+00  0.198E+00    0.92       1.0  T
   7     -9.6453684 -0.544409E-02  0.188E+00    0.93       1.0  T
   8     -9.6489096 -0.354120E-02  0.179E+00    0.90       1.0  T
   9     -9.6554437 -0.653410E-02  0.148E+00    0.84       1.0  T
  10     -9.6622822 -0.683847E-02  0.134E+00    0.83       1.0  T
  11     -9.6670517 -0.476956E-02  0.124E+00    0.79       1.0  T
  12     -9.6627428  0.430892E-02  0.136E+00    0.83       1.0  T
  13     -9.6805992 -0.178564E-01  0.814E-01    0.66       1.0  T
  14     -9.6840217 -0.342251E-02  0.614E-01    0.63       1.0  T
  15     -9.6870263 -0.300459E-02  0.393E-01    0.59       1.0  T
  16     -9.6871663 -0.140082E-03  0.318E-01    0.59       1.0  T
  17     -9.6886238 -0.145746E-02  0.126E-01    0.54       1.0  T
  18     -9.6884435  0.180299E-03  0.155E-01    0.55       1.0  T
  19     -9.6887427 -0.299179E-03  0.794E-02    0.53       1.0  T
  20     -9.6887469 -0.420949E-05  0.603E-02    0.53       1.0  T
  21     -9.6887449  0.202990E-05  0.442E-02    0.53       1.0  T
  22     -9.6887425  0.231982E-05  0.347E-02    0.53       1.0  T
  23     -9.6887452 -0.270864E-05  0.199E-02    0.53       1.7  T
  24     -9.6887472 -0.196026E-05  0.268E-03    0.53      12.4  T
  25     -9.6887473 -0.462547E-07  0.207E-03    0.53      16.1  T
  26     -9.6887473 -0.229227E-07  0.165E-03    0.53      20.2  T
  27     -9.6887473 -0.418948E-07  0.283E-04    0.53     117.6  T
  28     -9.6887473 -0.487406E-09  0.166E-04    0.53     200.6  T
     SCC iter.                  ...        0 min,  0.005 sec
     gradient                   ...        0 min,  0.000 sec
 * total energy  :    -9.4565559 Eh     change       -0.3172407E-02 Eh
   gradient norm :     0.1941235 Eh/α   predicted    -0.2763796E-01 ( 771.20%)
   displ. norm   :     0.4884578 α      lambda       -0.5155033E-01
   maximum displ.:     0.3165421 α      in ANC's #3, #6, #1, ...

........................................................................
.............................. CYCLE   15 ..............................
........................................................................
   1     -9.6361945 -0.963619E+01  0.276E+00    0.52       0.0  T
   2     -9.4209697  0.215225E+00  0.544E+00    2.35       1.0  T
   3     -9.6576718 -0.236702E+00  0.144E+00    0.59       1.0  T
   4     -9.6263190  0.313529E-01  0.154E+00    0.82       1.0  T
   5     -9.6368210 -0.105021E-01  0.163E+00    0.60       1.0  T
   6     -9.6623712 -0.255502E-01  0.461E-01    0.68       1.0  T
   7     -9.6635180 -0.114671E-02  0.193E-01    0.73       1.0  T
   8     -9.6630979  0.420055E-03  0.242E-01    0.77       1.0  T
   9     -9.6633878 -0.289861E-03  0.141E-01    0.73       1.0  T
  10     -9.6636261 -0.238319E-03  0.753E-02    0.76       1.0  T
  11     -9.6636052  0.209368E-04  0.860E-02    0.77       1.0  T
  12     -9.6636574 -0.522109E-04  0.851E-03    0.75       3.9  T
  13     -9.6636564  0.980179E-06  0.144E-02    0.75       2.3  T
  14     -9.6636579 -0.148985E-05  0.185E-03    0.75      18.0  T
  15     -9.6636579 -0.719140E-08  0.135E-03    0.75      24.7  T
  16     -9.6636579 -0.103708E-07  0.562E-04    0.75      59.4  T
  17     -9.6636579 -0.232694E-08  0.166E-04    0.75     200.4  T
     SCC iter.                  ...        0 min,  0.003 sec
     gradient                   ...        0 min,  0.001 sec
 * total energy  :    -9.4805141 Eh     change       -0.2395818E-01 Eh
   gradient norm :     0.1136349 Eh/α   predicted    -0.3192488E-01 (  33.25%)
   displ. norm   :     0.6400133 α      lambda       -0.3722855E-01
   maximum displ.:     0.3874000 α      in ANC's #11, #7, #4, ...

........................................................................
.............................. CYCLE   16 ..............................
........................................................................
   1     -9.6871965 -0.968720E+01  0.278E+00    0.42       0.0  T
   2     -9.6731868  0.140097E-01  0.213E+00    0.78       1.0  T
   3     -4.8480592  0.482513E+01  0.179E+01    0.42       1.0  T
   4     -9.2217670 -0.437371E+01  0.760E+00    0.20       1.0  T
   5     -7.3158552  0.190591E+01  0.158E+01    0.30       1.0  T
   6     -9.6768904 -0.236104E+01  0.146E+00    0.53       1.0  T
   7     -9.6874205 -0.105301E-01  0.605E-01    0.56       1.0  T
   8     -9.6763151  0.111054E-01  0.102E+00    0.69       1.0  T
   9     -9.6852148 -0.889979E-02  0.644E-01    0.59       1.0  T
  10     -9.6888494 -0.363453E-02  0.722E-01    0.51       1.0  T
  11     -9.6891172 -0.267816E-03  0.771E-01    0.51       1.0  T
  12     -9.6890182  0.990409E-04  0.769E-01    0.50       1.0  T
  13     -9.6890056  0.125637E-04  0.884E-01    0.49       1.0  T
  14     -9.6890406 -0.350514E-04  0.861E-01    0.49       1.0  T
  15     -9.6890891 -0.484819E-04  0.821E-01    0.49       1.0  T
  16     -9.6889593  0.129792E-03  0.647E-01    0.51       1.0  T
  17     -9.6882168  0.742566E-03  0.554E-01    0.53       1.0  T
  18     -9.6876883  0.528476E-03  0.552E-01    0.54       1.0  T
  19     -9.6875261  0.162156E-03  0.543E-01    0.54       1.0  T
  20     -9.6876845 -0.158353E-03  0.515E-01    0.54       1.0  T
  21     -9.6877758 -0.912742E-04  0.501E-01    0.54       1.0  T
  22     -9.6883005 -0.524746E-03  0.399E-01    0.53       1.0  T
  23     -9.6887195 -0.418986E-03  0.281E-01    0.52       1.0  T
  24     -9.6890486 -0.329061E-03  0.161E-01    0.51       1.0  T
  25     -9.6891587 -0.110188E-03  0.104E-01    0.51       1.0  T
  26     -9.6892387 -0.799506E-04  0.525E-02    0.50       1.0  T
  27     -9.6892579 -0.192507E-04  0.234E-02    0.50       1.4  T
  28     -9.6892617 -0.379343E-05  0.742E-03    0.50       4.5  T
  29     -9.6892621 -0.384727E-06  0.107E-03    0.50      31.3  T
  30     -9.6892621  0.237078E-07  0.208E-03    0.50      16.0  T
  31     -9.6892621 -0.259952E-07  0.108E-04    0.50     309.9  T
  32     -9.6892621  0.256204E-10  0.609E-05    0.50     547.8  T
     SCC iter.                  ...        0 min,  0.005 sec
     gradient                   ...        0 min,  0.001 sec
 * total energy  :    -9.4507409 Eh     change        0.2977318E-01 Eh
   gradient norm :     0.2991353 Eh/α   predicted    -0.2623900E-01 (-188.13%)
   displ. norm   :     0.3740369 α      lambda       -0.7396095E-01
   maximum displ.:     0.2562158 α      in ANC's #11, #13, #3, ...

........................................................................
.............................. CYCLE   17 ..............................
........................................................................
   1     -9.6455744 -0.964557E+01  0.224E+00    0.75       0.0  T
   2     -3.5820149  0.606356E+01  0.186E+01    0.28       1.0  T
   3     -9.5920761 -0.601006E+01  0.252E+00    1.04       1.0  T
   4     -9.6354429 -0.433669E-01  0.169E+00    0.79       1.0  T
   5     -9.6290788  0.636414E-02  0.170E+00    0.60       1.0  T
   6     -9.6400992 -0.110204E-01  0.126E+00    0.74       1.0  T
   7     -9.6476335 -0.753437E-02  0.117E+00    0.70       1.0  T
   8     -9.6524571 -0.482354E-02  0.106E+00    0.64       1.0  T
   9     -9.6533096 -0.852502E-03  0.101E+00    0.63       1.0  T
  10     -9.6557223 -0.241270E-02  0.857E-01    0.62       1.0  T
  11     -9.6579548 -0.223251E-02  0.754E-01    0.60       1.0  T
  12     -9.6594651 -0.151028E-02  0.664E-01    0.58       1.0  T
  13     -9.6618013 -0.233625E-02  0.473E-01    0.55       1.0  T
  14     -9.6644624 -0.266107E-02  0.120E-01    0.48       1.0  T
  15     -9.6644551  0.725654E-05  0.106E-01    0.48       1.0  T
  16     -9.6644559 -0.790505E-06  0.256E-02    0.49       1.3  T
  17     -9.6644567 -0.778416E-06  0.318E-02    0.49       1.0  T
  18     -9.6644657 -0.895606E-05  0.157E-02    0.49       2.1  T
  19     -9.6644684 -0.271732E-05  0.371E-03    0.49       9.0  T
  20     -9.6644683  0.102459E-06  0.279E-03    0.49      11.9  T
  21     -9.6644684 -0.102997E-06  0.108E-03    0.49      30.9  T
  22     -9.6644684 -0.110329E-07  0.854E-04    0.49      39.1  T
  23     -9.6644684 -0.775326E-08  0.240E-04    0.49     139.0  T
     SCC iter.                  ...        0 min,  0.004 sec
     gradient                   ...        0 min,  0.001 sec
 * total energy  :    -9.4911774 Eh     change       -0.4043652E-01 Eh
   gradient norm :     0.0550846 Eh/α   predicted    -0.4215417E-01 (   4.25%)
   displ. norm   :     0.6182171 α      lambda       -0.2157377E-01
   maximum displ.:     0.2449246 α      in ANC's #18, #3, #11, ...

........................................................................
.............................. CYCLE   18 ..............................
........................................................................
   1     -9.6245906 -0.962459E+01  0.361E+00    0.48       0.0  T
   2     -9.3130381  0.311553E+00  0.667E+00    3.32       1.0  T
   3     -9.6796686 -0.366631E+00  0.121E+00    0.91       1.0  T
   4     -9.4783273  0.201341E+00  0.525E+00    0.29       1.0  T
   5     -9.6329736 -0.154646E+00  0.162E+00    0.72       1.0  T
   6     -9.6753200 -0.423463E-01  0.119E+00    0.97       1.0  T
   7     -9.6798041 -0.448409E-02  0.979E-01    0.92       1.0  T
   8     -9.6848155 -0.501142E-02  0.629E-01    0.87       1.0  T
   9     -9.6847252  0.903022E-04  0.587E-01    0.87       1.0  T
  10     -9.6857727 -0.104754E-02  0.446E-01    0.86       1.0  T
  11     -9.6854778  0.294890E-03  0.459E-01    0.86       1.0  T
  12     -9.6868109 -0.133311E-02  0.203E-01    0.83       1.0  T
  13     -9.6869191 -0.108202E-03  0.155E-01    0.82       1.0  T
  14     -9.6870326 -0.113433E-03  0.629E-02    0.81       1.0  T
  15     -9.6870308  0.178409E-05  0.393E-02    0.80       1.0  T
  16     -9.6870263  0.443523E-05  0.480E-02    0.80       1.0  T
  17     -9.6870385 -0.121620E-04  0.145E-02    0.81       2.3  T
  18     -9.6870388 -0.291661E-06  0.108E-02    0.81       3.1  T
  19     -9.6870391 -0.325983E-06  0.802E-03    0.81       4.2  T
  20     -9.6870395 -0.365681E-06  0.312E-03    0.81      10.7  T
  21     -9.6870395 -0.497066E-07  0.114E-03    0.81      29.3  T
  22     -9.6870395 -0.379643E-08  0.633E-04    0.81      52.7  T
  23     -9.6870395 -0.243111E-08  0.126E-04    0.81     264.0  T
     SCC iter.                  ...        0 min,  0.004 sec
     gradient                   ...        0 min,  0.000 sec
 * total energy  :    -9.4901600 Eh     change        0.1017441E-02 Eh
   gradient norm :     0.1431925 Eh/α   predicted    -0.1490956E-01 (*******%)
   displ. norm   :     0.3880299 α      lambda       -0.2905748E-01
   maximum displ.:     0.2528604 α      in ANC's #5, #1, #2, ...

........................................................................
.............................. CYCLE   19 ..............................
........................................................................
   1     -9.6516403 -0.965164E+01  0.258E+00    0.95       0.0  T
   2      1.3205132  0.109722E+02  0.183E+01    0.36       1.0  T
   3     -6.6935157 -0.801403E+01  0.170E+01    0.17       1.0  T
   4     -6.6535774  0.399383E-01  0.171E+01    0.17       1.0  T
   5     -7.8873027 -0.123373E+01  0.133E+01    0.09       1.0  T
   6     -9.4696335 -0.158233E+01  0.318E+00    0.52       1.0  T
   7     -9.6703074 -0.200674E+00  0.102E+00    0.54       1.0  T
   8     -9.6351034  0.352040E-01  0.254E+00    1.09       1.0  T
   9     -9.6594827 -0.243793E-01  0.170E+00    0.85       1.0  T
  10     -9.6658407 -0.635796E-02  0.143E+00    0.79       1.0  T
  11     -9.6793360 -0.134953E-01  0.103E+00    0.70       1.0  T
  12     -9.6795629 -0.226921E-03  0.103E+00    0.70       1.0  T
  13     -9.6812353 -0.167241E-02  0.947E-01    0.67       1.0  T
  14     -9.6830305 -0.179517E-02  0.983E-01    0.62       1.0  T
  15     -9.6826230  0.407503E-03  0.966E-01    0.63       1.0  T
  16     -9.6825642  0.587879E-04  0.995E-01    0.63       1.0  T
  17     -9.6825679 -0.370282E-05  0.100E+00    0.64       1.0  T
  18     -9.6825671  0.793911E-06  0.100E+00    0.64       1.0  T
  19     -9.6825203  0.467745E-04  0.100E+00    0.64       1.0  T
  20     -9.6825304 -0.100944E-04  0.102E+00    0.65       1.0  T
  21     -9.6827815 -0.251083E-03  0.108E+00    0.66       1.0  T
  22     -9.6829801 -0.198559E-03  0.114E+00    0.67       1.0  T
  23     -9.6830768 -0.967630E-04  0.117E+00    0.67       1.0  T
  24     -9.6831076 -0.307681E-04  0.118E+00    0.67       1.0  T
  25     -9.6830747  0.329502E-04  0.117E+00    0.67       1.0  T
  26     -9.6829209  0.153721E-03  0.113E+00    0.67       1.0  T
  27     -9.6825865  0.334446E-03  0.106E+00    0.68       1.0  T
  28     -9.6822232  0.363264E-03  0.972E-01    0.68       1.0  T
  29     -9.6820147  0.208478E-03  0.884E-01    0.68       1.0  T
  30     -9.6822668 -0.252064E-03  0.774E-01    0.68       1.0  T
  31     -9.6833578 -0.109104E-02  0.651E-01    0.66       1.0  T
  32     -9.6843076 -0.949702E-03  0.537E-01    0.63       1.0  T
  33     -9.6846064 -0.298823E-03  0.243E-01    0.60       1.0  T
  34     -9.6846232 -0.168286E-04  0.891E-02    0.60       1.0  T
  35     -9.6846444 -0.211665E-04  0.359E-02    0.59       1.0  T
  36     -9.6846431  0.123662E-05  0.240E-02    0.59       1.4  T
  37     -9.6846460 -0.290903E-05  0.884E-03    0.59       3.8  T
  38     -9.6846455  0.562744E-06  0.900E-03    0.59       3.7  T
  39     -9.6846459 -0.455422E-06  0.581E-03    0.59       5.7  T
  40     -9.6846461 -0.179898E-06  0.314E-03    0.59      10.6  T
  41     -9.6846461 -0.345176E-07  0.206E-03    0.59      16.2  T
  42     -9.6846462 -0.380317E-07  0.762E-04    0.59      43.7  T
  43     -9.6846462  0.383089E-10  0.481E-04    0.59      69.2  T
     SCC iter.                  ...        0 min,  0.007 sec
     gradient                   ...        0 min,  0.000 sec
 * total energy  :    -9.5024877 Eh     change       -0.1232771E-01 Eh
   gradient norm :     0.0781851 Eh/α   predicted    -0.1671630E-01 (  35.60%)
   displ. norm   :     0.4541264 α      lambda       -0.1508571E-01
   maximum displ.:     0.2766280 α      in ANC's #12, #10, #2, ...

........................................................................
.............................. CYCLE   20 ..............................
........................................................................
   1     -9.6887127 -0.968871E+01  0.195E+00    0.43       0.0  T
   2     -9.6752465  0.134661E-01  0.146E+00    0.64       1.0  T
   3     -6.0746829  0.360056E+01  0.182E+01    0.31       1.0  T
   4     -8.5942310 -0.251955E+01  0.120E+01    0.19       1.0  T
   5     -8.6491422 -0.549112E-01  0.118E+01    0.19       1.0  T
   6     -9.6708378 -0.102170E+01  0.127E+00    0.72       1.0  T
   7     -9.6756597 -0.482190E-02  0.101E+00    0.62       1.0  T
   8     -9.6854490 -0.978928E-02  0.555E-01    0.53       1.0  T
   9     -9.6887190 -0.326997E-02  0.721E-01    0.43       1.0  T
  10     -9.6888256 -0.106595E-03  0.801E-01    0.42       1.0  T
  11     -9.6872817  0.154386E-02  0.952E-01    0.39       1.0  T
  12     -9.6886776 -0.139588E-02  0.761E-01    0.41       1.0  T
  13     -9.6884135  0.264056E-03  0.826E-01    0.41       1.0  T
  14     -9.6883111  0.102452E-03  0.859E-01    0.41       1.0  T
  15     -9.6882247  0.864164E-04  0.877E-01    0.41       1.0  T
  16     -9.6883434 -0.118681E-03  0.853E-01    0.41       1.0  T
  17     -9.6888273 -0.483907E-03  0.728E-01    0.41       1.0  T
  18     -9.6893186 -0.491367E-03  0.500E-01    0.42       1.0  T
  19     -9.6892647  0.538900E-04  0.440E-01    0.43       1.0  T
  20     -9.6891960  0.686903E-04  0.417E-01    0.43       1.0  T
  21     -9.6890577  0.138370E-03  0.401E-01    0.43       1.0  T
  22     -9.6890526  0.512254E-05  0.384E-01    0.43       1.0  T
  23     -9.6890611 -0.852963E-05  0.362E-01    0.43       1.0  T
  24     -9.6890800 -0.188942E-04  0.297E-01    0.43       1.0  T
  25     -9.6891598 -0.798419E-04  0.224E-01    0.43       1.0  T
  26     -9.6892535 -0.937202E-04  0.142E-01    0.42       1.0  T
  27     -9.6893034 -0.498928E-04  0.907E-02    0.42       1.0  T
  28     -9.6893326 -0.291598E-04  0.506E-02    0.42       1.0  T
  29     -9.6893443 -0.117395E-04  0.235E-02    0.42       1.4  T
  30     -9.6893475 -0.318257E-05  0.761E-03    0.42       4.4  T
  31     -9.6893479 -0.407937E-06  0.334E-04    0.42      99.9  T
  32     -9.6893479  0.178245E-09  0.225E-04    0.42     147.9  T
     SCC iter.                  ...        0 min,  0.005 sec
     gradient                   ...        0 min,  0.000 sec
 * total energy  :    -9.5036675 Eh     change       -0.1179834E-02 Eh
   gradient norm :     0.0585327 Eh/α   predicted    -0.9098422E-02 ( 671.16%)
   displ. norm   :     0.4449009 α      lambda       -0.1359405E-01
   maximum displ.:     0.2836550 α      in ANC's #7, #2, #4, ...
 * RMSD in coord.:     1.9832198 α      energy gain  -0.6396011E+00 Eh

generating ANC from model Hessian ...
Using Lindh-Hessian (1995)
 Shifting diagonal of input Hessian by    1.0239746285901880E-002
 Lowest  eigenvalues of input Hessian
    0.010000    0.010155    0.000000    0.000000    0.000000    0.000000
    0.000000    0.000000    0.010593    0.010632    0.012229    0.014503
    0.016816    0.024158    0.033191    0.053596    0.102970    0.113204
 Highest eigenvalues
    0.437959    0.482373    0.642379    1.025867    1.055404    1.932291


........................................................................
.............................. CYCLE   21 ..............................
........................................................................
   1     -9.6662888 -0.966629E+01  0.219E+00    0.64       0.0  T
   2     -4.4077193  0.525857E+01  0.167E+01    0.25       1.0  T
   3     -9.6385764 -0.523086E+01  0.221E+00    1.06       1.0  T
   4     -9.6281297  0.104466E-01  0.208E+00    1.00       1.0  T
   5     -9.6395262 -0.113964E-01  0.167E+00    0.87       1.0  T
   6     -9.6484527 -0.892648E-02  0.139E+00    0.86       1.0  T
   7     -9.6555935 -0.714086E-02  0.123E+00    0.82       1.0  T
   8     -9.6596555 -0.406193E-02  0.114E+00    0.76       1.0  T
   9     -9.6682281 -0.857259E-02  0.845E-01    0.69       1.0  T
  10     -9.6692571 -0.102910E-02  0.801E-01    0.68       1.0  T
  11     -9.6756555 -0.639838E-02  0.524E-01    0.60       1.0  T
  12     -9.6760160 -0.360487E-03  0.502E-01    0.59       1.0  T
  13     -9.6795096 -0.349357E-02  0.162E-01    0.52       1.0  T
  14     -9.6797715 -0.261899E-03  0.121E-01    0.50       1.0  T
  15     -9.6798558 -0.843477E-04  0.922E-02    0.50       1.0  T
  16     -9.6799269 -0.710741E-04  0.187E-02    0.48       1.8  T
  17     -9.6799265  0.377220E-06  0.719E-03    0.48       4.6  T
  18     -9.6799235  0.297751E-05  0.155E-02    0.48       2.2  T
  19     -9.6799263 -0.270304E-05  0.802E-03    0.48       4.2  T
  20     -9.6799271 -0.885904E-06  0.199E-03    0.48      16.8  T
  21     -9.6799271  0.230590E-08  0.105E-03    0.48      31.8  T
  22     -9.6799271 -0.154460E-07  0.476E-04    0.48      70.0  T
  23     -9.6799271 -0.583178E-11  0.504E-05    0.48     660.8  T
     SCC iter.                  ...        0 min,  0.004 sec
     gradient                   ...        0 min,  0.000 sec
 * total energy  :    -9.5088566 Eh     change       -0.5189056E-02 Eh
   gradient norm :     0.0547145 Eh/α   predicted     0.0000000E+00 (-100.00%)
   displ. norm   :     0.4291897 α      lambda       -0.1144439E-01
   maximum displ.:     0.2654522 α      in ANC's #7, #8, #9, ...

........................................................................
.............................. CYCLE   22 ..............................
........................................................................
   1     -9.7020926 -0.970209E+01  0.158E+00    0.52       0.0  T
   2     -9.6832475  0.188450E-01  0.179E+00    0.35       1.0  T
   3     -9.6516011  0.316464E-01  0.230E+00    1.11       1.0  T
   4     -9.6722117 -0.206105E-01  0.177E+00    0.40       1.0  T
   5     -9.7002679 -0.280562E-01  0.506E-01    0.47       1.0  T
   6     -9.7006593 -0.391420E-03  0.635E-01    0.51       1.0  T
   7     -9.7008469 -0.187577E-03  0.623E-01    0.56       1.0  T
   8     -9.7016178 -0.770865E-03  0.443E-01    0.55       1.0  T
   9     -9.7025807 -0.962907E-03  0.878E-02    0.49       1.0  T
  10     -9.7026602 -0.795159E-04  0.681E-02    0.51       1.0  T
  11     -9.7026667 -0.657535E-05  0.299E-02    0.51       1.1  T
  12     -9.7026699 -0.310552E-05  0.194E-02    0.51       1.7  T
  13     -9.7026725 -0.264273E-05  0.315E-03    0.51      10.6  T
  14     -9.7026725 -0.376051E-07  0.213E-03    0.51      15.6  T
  15     -9.7026725  0.824254E-07  0.360E-03    0.51       9.3  T
  16     -9.7026725 -0.519643E-07  0.224E-03    0.51      14.9  T
  17     -9.7026725 -0.345873E-07  0.999E-05    0.51     333.6  T
  18     -9.7026725 -0.401794E-10  0.665E-05    0.51     501.2  T
     SCC iter.                  ...        0 min,  0.003 sec
     gradient                   ...        0 min,  0.001 sec
 * total energy  :    -9.5178295 Eh     change       -0.8972970E-02 Eh
   gradient norm :     0.0374088 Eh/α   predicted    -0.6776251E-02 ( -24.48%)
   displ. norm   :     0.7511008 α      lambda       -0.1424131E-01
   maximum displ.:     0.6489424 α      in ANC's #7, #8, #11, ...

........................................................................
.............................. CYCLE   23 ..............................
........................................................................
   1     -9.7404600 -0.974046E+01  0.355E+00    0.70       0.0  T
   2     -9.7318777  0.858225E-02  0.259E+00    0.53       1.0  T
   3     -9.5902691  0.141609E+00  0.397E+00    2.57       1.0  T
   4     -9.7316319 -0.141363E+00  0.118E+00    1.05       1.0  T
   5     -9.7388017 -0.716982E-02  0.595E-01    0.95       1.0  T
   6     -9.7408994 -0.209769E-02  0.614E-01    0.86       1.0  T
   7     -9.7401036  0.795756E-03  0.476E-01    0.93       1.0  T
   8     -9.7400722  0.314360E-04  0.354E-01    0.95       1.0  T
   9     -9.7415378 -0.146561E-02  0.104E-01    0.86       1.0  T
  10     -9.7414635  0.742973E-04  0.115E-01    0.87       1.0  T
  11     -9.7415852 -0.121699E-03  0.105E-02    0.85       3.2  T
  12     -9.7415857 -0.529325E-06  0.720E-03    0.85       4.6  T
  13     -9.7415858 -0.103391E-06  0.278E-03    0.85      12.0  T
  14     -9.7415858  0.516217E-07  0.232E-03    0.85      14.4  T
  15     -9.7415859 -0.696356E-07  0.392E-04    0.85      85.1  T
  16     -9.7415859 -0.179352E-08  0.268E-04    0.85     124.4  T
     SCC iter.                  ...        0 min,  0.002 sec
     gradient                   ...        0 min,  0.001 sec
 * total energy  :    -9.5330730 Eh     change       -0.1524343E-01 Eh
   gradient norm :     0.0689485 Eh/α   predicted    -0.1113779E-01 ( -26.93%)
   displ. norm   :     0.7466260 α      lambda       -0.2459846E-01
   maximum displ.:     0.6128451 α      in ANC's #7, #8, #13, ...

........................................................................
.............................. CYCLE   24 ..............................
........................................................................
   1     -9.7357453 -0.973575E+01  0.321E+00    1.36       0.0  T
   2     -9.7310211  0.472419E-02  0.188E+00    1.77       1.0  T
   3     -9.6405538  0.904672E-01  0.421E+00    0.64       1.0  T
   4     -9.6646691 -0.241153E-01  0.224E+00    2.06       1.0  T
   5     -9.7356178 -0.709486E-01  0.522E-01    1.63       1.0  T
   6     -9.7357162 -0.984566E-04  0.620E-01    1.42       1.0  T
   7     -9.7335822  0.213400E-02  0.789E-01    1.39       1.0  T
   8     -9.7366614 -0.307915E-02  0.391E-01    1.46       1.0  T
   9     -9.7379183 -0.125698E-02  0.501E-02    1.57       1.0  T
  10     -9.7379445 -0.261263E-04  0.435E-02    1.59       1.0  T
  11     -9.7379497 -0.519801E-05  0.743E-03    1.58       4.5  T
  12     -9.7379497 -0.200982E-07  0.491E-03    1.58       6.8  T
  13     -9.7379498 -0.103144E-06  0.104E-03    1.58      31.9  T
[...]
  11     -9.8180902 -0.686000E-08  0.503E-04    3.14      66.3  T
  12     -9.8180902 -0.244462E-08  0.607E-05    3.13     548.8  T
     SCC iter.                  ...        0 min,  0.002 sec
     gradient                   ...        0 min,  0.000 sec
 * total energy  :    -9.6083375 Eh     change       -0.3462445E-05 Eh
   gradient norm :     0.0022894 Eh/α   predicted    -0.3575070E-05 (   3.25%)
   displ. norm   :     0.0172901 α      lambda       -0.9194850E-05
   maximum displ.:     0.0109677 α      in ANC's #4, #1, #6, ...
 * RMSD in coord.:     0.9482468 α      energy gain  -0.4706503E-03 Eh

generating ANC from model Hessian ...
Using Lindh-Hessian (1995)
 Shifting diagonal of input Hessian by    1.0067396100837862E-002
 Lowest  eigenvalues of input Hessian
    0.010000    0.010066    0.000000    0.000000    0.000000    0.000000
    0.000000    0.000000    0.010181    0.010562    0.010630    0.012945
    0.017826    0.043056    0.070911    0.087901    0.137997    0.145981
 Highest eigenvalues
    0.549058    0.560614    0.754747    1.062146    1.070742    2.215267


........................................................................
.............................. CYCLE   67 ..............................
........................................................................
   1     -9.8189589 -0.981896E+01  0.414E-02    3.14       0.0  T
   2     -9.8189583  0.560294E-06  0.283E-02    3.14       1.2  T
   3     -9.8189188  0.395280E-04  0.487E-02    3.13       1.0  T
   4     -9.8189558 -0.369933E-04  0.157E-02    3.14       2.1  T
   5     -9.8189590 -0.326495E-05  0.325E-03    3.14      10.3  T
   6     -9.8189590 -0.158690E-07  0.188E-03    3.14      17.8  T
   7     -9.8189590  0.323748E-07  0.170E-03    3.14      19.6  T
   8     -9.8189590 -0.366265E-07  0.615E-04    3.14      54.2  T
   9     -9.8189590 -0.289612E-08  0.233E-04    3.14     142.9  T
     SCC iter.                  ...        0 min,  0.001 sec
     gradient                   ...        0 min,  0.000 sec
 * total energy  :    -9.6083429 Eh     change       -0.5450944E-05 Eh
   gradient norm :     0.0011474 Eh/α   predicted     0.0000000E+00 (-100.00%)
   displ. norm   :     0.0154560 α      lambda       -0.4198446E-05
   maximum displ.:     0.0112565 α      in ANC's #1, #3, #5, ...

........................................................................
.............................. CYCLE   68 ..............................
........................................................................
   1     -9.8193770 -0.981938E+01  0.375E-02    3.14       0.0  T
   2     -9.8193768  0.200378E-06  0.241E-02    3.14       1.4  T
   3     -9.8193585  0.183152E-04  0.333E-02    3.14       1.0  T
   4     -9.8193756 -0.170930E-04  0.105E-02    3.14       3.2  T
   5     -9.8193770 -0.138318E-05  0.431E-03    3.14       7.7  T
   6     -9.8193771 -0.974244E-07  0.253E-03    3.14      13.2  T
   7     -9.8193771 -0.421347E-07  0.137E-03    3.14      24.4  T
   8     -9.8193771 -0.890504E-08  0.787E-04    3.14      42.4  T
   9     -9.8193772 -0.531758E-08  0.121E-04    3.14     274.5  T
     SCC iter.                  ...        0 min,  0.001 sec
     gradient                   ...        0 min,  0.001 sec
 * total energy  :    -9.6083462 Eh     change       -0.3264442E-05 Eh
   gradient norm :     0.0004651 Eh/α   predicted    -0.2101185E-05 ( -35.63%)
   displ. norm   :     0.0184329 α      lambda       -0.2130114E-05
   maximum displ.:     0.0095989 α      in ANC's #5, #3, #1, ...

   *** GEOMETRY OPTIMIZATION CONVERGED AFTER 68 ITERATIONS ***

------------------------------------------------------------------------
 total energy gain   :        -0.7442798 Eh     -467.0426 kcal/mol
 total RMSD          :         3.1465833 a0        1.6651 Å
 total power (kW/mol):       -28.7368568 (step)-7853.0475 (real)
------------------------------------------------------------------------

 ANCopt (total)                0 d,  0 h,  0 min,  0.249 sec
 optimizer setup                ...        0 min,  0.000 sec (  0.010%)
 model hessian                  ...        0 min,  0.000 sec (  0.181%)
 ANC generation                 ...        0 min,  0.000 sec (  0.082%)
 coordinate transformation      ...        0 min,  0.000 sec (  0.074%)
 single point calculation       ...        0 min,  0.242 sec ( 97.100%)
 optimization log               ...        0 min,  0.002 sec (  0.956%)
 hessian update                 ...        0 min,  0.002 sec (  0.614%)
 rational function              ...        0 min,  0.001 sec (  0.483%)

================
 final structure:
================
9
 xtb: 6.5.1 (conda-forge)
Be           1.84396354756913        0.12234288571576        0.43192583562567
Be           2.48710990961756        0.16622805152984        2.21054650622326
C            3.33071634381657        0.45416066409184       -0.23028584843430
C            3.87897139235260        0.50947102184009        0.87709197876948
C            4.24308342268041        0.51804937764482        2.25403036938151
H            4.98263277838600       -0.24775384449865        2.49744961140511
H            4.63422448947254        1.48429882956508        2.57969024065568
H            2.31815017518735        0.04805363278409        5.07107238708048
H            2.40914794091800        0.04019638132621        5.85197891929347

 Bond Distances (Angstroems)
 ---------------------------
Be1-Be2=1.8918       Be1-C3=1.6610        Be1-C4=2.1188        Be2-Be1=1.8918       Be2-C4=1.9579        Be2-C5=1.7914        
C3-Be1=1.6610        C3-C4=1.2369         C4-Be1=2.1188        C4-Be2=1.9579        C4-C3=1.2369         C4-C5=1.4243         
C5-Be2=1.7914        C5-C4=1.4243         C5-H6=1.0921         C5-H7=1.0921         H6-C5=1.0921         H7-C5=1.0921         
H8-H9=0.7862         H9-H8=0.7862         
 H  H  Rav=0.7862 sigma=0.0000  Rmin=0.7862  Rmax=0.7862     1
 Be Be Rav=1.8918 sigma=0.0000  Rmin=1.8918  Rmax=1.8918     1
 C  H  Rav=1.0921 sigma=0.0000  Rmin=1.0921  Rmax=1.0921     2
 C  Be Rav=1.8823 sigma=0.1724  Rmin=1.6610  Rmax=2.1188     4
 C  C  Rav=1.3306 sigma=0.0937  Rmin=1.2369  Rmax=1.4243     2

 selected bond angles (degree)
 --------------------
C3-Be1-Be2= 93.78              C4-Be1-Be2= 58.11              C4-Be1-C3= 35.67               C4-Be2-Be1= 66.76              
C5-Be2-Be1=111.14              C5-Be2-C4= 44.38               C4-C3-Be1= 92.79               Be2-C4-Be1= 55.13              
C3-C4-Be1= 51.54               C3-C4-Be2=106.67               C5-C4-Be1=116.73               C5-C4-Be2= 61.60               
C5-C4-C3=168.27                C4-C5-Be2= 74.02               H6-C5-Be2=122.11               H6-C5-C4=112.61                
H7-C5-Be2=122.15               H7-C5-C4=112.65                H7-C5-H6=108.14                

 selected dihedral angles (degree)
 ---------------------------------
C4-Be2-Be1-C3=359.94          C5-Be2-Be1-C3=  0.00          C5-Be2-Be1-C4=  0.05          C4-C3-Be1-Be2=  0.08          
Be2-C4-Be1-C3=179.90          C3-C4-Be1-Be2=180.10          C5-C4-Be1-Be2=359.94          C5-C4-Be1-C3=179.84           
Be1-C4-Be2-C5=180.07          C3-C4-Be2-Be1=  0.08          C3-C4-Be2-C5=180.15           C5-C4-Be2-Be1=179.93          
Be2-C4-C3-Be1=359.92          C5-C4-C3-Be1=359.29           C4-C5-Be2-Be1=359.94          H6-C5-Be2-Be1=252.94          
H6-C5-Be2-C4=253.00           H7-C5-Be2-Be1=106.99          H7-C5-Be2-C4=107.05           Be2-C5-C4-Be1=  0.06          
Be2-C5-C4-C3=  0.68           H6-C5-C4-Be1=118.72           H6-C5-C4-Be2=118.66           H6-C5-C4-C3=119.35            
H7-C5-C4-Be1=241.36           H7-C5-C4-Be2=241.30           H7-C5-C4-C3=241.98            

 CMA Distance (Angstroems)
 ---------------------------
R(CMA):  2.0098
           -------------------------------------------------
          |                Final Singlepoint                |
           -------------------------------------------------

          ...................................................
          :                      SETUP                      :
          :.................................................:
          :  # basis functions                  24          :
          :  # atomic orbitals                  24          :
          :  # shells                           14          :
          :  # electrons                        20          :
          :  max. iterations                   250          :
          :  Hamiltonian                  GFN2-xTB          :
          :  restarted?                      false          :
          :  GBSA solvation                  false          :
          :  PC potential                    false          :
          :  electronic temp.          300.0000000     K    :
          :  accuracy                    1.0000000          :
          :  -> integral cutoff          0.2500000E+02      :
          :  -> integral neglect         0.1000000E-07      :
          :  -> SCF convergence          0.1000000E-05 Eh   :
          :  -> wf. convergence          0.1000000E-03 e    :
          :  Broyden damping             0.4000000          :
          ...................................................

 iter      E             dE          RMSdq      gap      omega  full diag
   1     -9.8193772 -0.981938E+01  0.577E-05    3.14       0.0  T
   2     -9.8193772  0.230997E-09  0.131E-04    3.14     254.8  T
   3     -9.8193772 -0.241242E-09  0.358E-05    3.14     932.3  T

   *** convergence criteria satisfied after 3 iterations ***

         #    Occupation            Energy/Eh            Energy/eV
      -------------------------------------------------------------
         1        2.0000           -0.5552121             -15.1081
       ...           ...                  ...                  ...
         4        2.0000           -0.4504765             -12.2581
         5        2.0000           -0.4387778             -11.9398
         6        2.0000           -0.4046534             -11.0112
         7        2.0000           -0.3465611              -9.4304
         8        2.0000           -0.3423390              -9.3155
         9        2.0000           -0.3320507              -9.0356
        10        2.0000           -0.3038479              -8.2681 (HOMO)
        11                         -0.1884165              -5.1271 (LUMO)
        12                         -0.1839319              -5.0050
        13                         -0.1507770              -4.1029
        14                         -0.1245917              -3.3903
        15                         -0.0390556              -1.0628
       ...                                ...                  ...
        24                          1.7431874              47.4345
      -------------------------------------------------------------
                  HL-Gap            0.1154314 Eh            3.1410 eV
             Fermi-level           -0.2461322 Eh           -6.6976 eV

 SCC (total)                   0 d,  0 h,  0 min,  0.002 sec
 SCC setup                      ...        0 min,  0.000 sec (  2.371%)
 Dispersion                     ...        0 min,  0.000 sec (  6.318%)
 classical contributions        ...        0 min,  0.000 sec (  1.661%)
 integral evaluation            ...        0 min,  0.000 sec (  8.817%)
 iterations                     ...        0 min,  0.001 sec ( 44.200%)
 molecular gradient             ...        0 min,  0.001 sec ( 34.545%)
 printout                       ...        0 min,  0.000 sec (  1.377%)

         :::::::::::::::::::::::::::::::::::::::::::::::::::::
         ::                     SUMMARY                     ::
         :::::::::::::::::::::::::::::::::::::::::::::::::::::
         :: total energy              -9.608346174620 Eh    ::
         :: gradient norm              0.000465233977 Eh/a0 ::
         :: HOMO-LUMO gap              3.141047902095 eV    ::
         ::.................................................::
         :: SCC energy                -9.819377152254 Eh    ::
         :: -> isotropic ES           -0.040630638248 Eh    ::
         :: -> anisotropic ES          0.001194073073 Eh    ::
         :: -> anisotropic XC         -0.017981333049 Eh    ::
         :: -> dispersion             -0.003508251042 Eh    ::
         :: repulsion energy           0.211029426908 Eh    ::
         :: add. restraining           0.000000000000 Eh    ::
         :: total charge              -0.000000000000 e     ::
         :::::::::::::::::::::::::::::::::::::::::::::::::::::

           -------------------------------------------------
          |                Property Printout                |
           -------------------------------------------------

    * Orbital Energies and Occupations

         #    Occupation            Energy/Eh            Energy/eV
      -------------------------------------------------------------
         1        2.0000           -0.5552121             -15.1081
         2        2.0000           -0.5298505             -14.4180
         3        2.0000           -0.4684032             -12.7459
         4        2.0000           -0.4504765             -12.2581
         5        2.0000           -0.4387778             -11.9398
         6        2.0000           -0.4046534             -11.0112
         7        2.0000           -0.3465611              -9.4304
         8        2.0000           -0.3423390              -9.3155
         9        2.0000           -0.3320507              -9.0356
        10        2.0000           -0.3038479              -8.2681 (HOMO)
        11                         -0.1884165              -5.1271 (LUMO)
        12                         -0.1839319              -5.0050
        13                         -0.1507770              -4.1029
        14                         -0.1245917              -3.3903
        15                         -0.0390556              -1.0628
        16                         -0.0029201              -0.0795
        17                          0.1319951               3.5918
        18                          0.1581899               4.3046
        19                          0.2708209               7.3694
        20                          0.2808349               7.6419
        21                          0.2835959               7.7170
       ...                                ...                  ...
        24                          1.7431874              47.4345
      -------------------------------------------------------------
                  HL-Gap            0.1154314 Eh            3.1410 eV
             Fermi-level           -0.2461322 Eh           -6.6976 eV

     #   Z          covCN         q      C6AA      α(0)
     1   4 Be       2.439     0.373    14.953     8.927
     2   4 Be       2.626     0.350    15.206     9.002
     3   6 C        1.866    -0.344    42.024    10.471
     4   6 C        3.356    -0.126    27.962     8.313
     5   6 C        3.660    -0.206    24.897     7.160
     6   1 H        0.924    -0.023     3.499     2.925
     7   1 H        0.924    -0.023     3.498     2.925
     8   1 H        0.783    -0.004     3.211     2.819
     9   1 H        0.783     0.004     3.060     2.752

 Mol. C6AA /au·bohr⁶  :        962.288467
 Mol. C8AA /au·bohr⁸  :      26391.464503
 Mol. α(0) /au        :         55.295232


Wiberg/Mayer (AO) data.
largest (>0.10) Wiberg bond orders for each atom

 ---------------------------------------------------------------------------
     #   Z sym  total        # sym  WBO       # sym  WBO       # sym  WBO
 ---------------------------------------------------------------------------
     1   4 Be   2.042 --     2 Be   1.004     3 C    0.813     4 C    0.159
     2   4 Be   1.917 --     1 Be   1.004     5 C    0.662     3 C    0.142
     3   6 C    3.614 --     4 C    2.532     1 Be   0.813     2 Be   0.142
     4   6 C    3.954 --     3 C    2.532     5 C    1.173     1 Be   0.159
     5   6 C    3.892 --     4 C    1.173     6 H    0.962     7 H    0.962
                             2 Be   0.662
     6   1 H    0.999 --     5 C    0.962
     7   1 H    0.999 --     5 C    0.962
     8   1 H    1.000 --     9 H    0.979
     9   1 H    0.993 --     8 H    0.979
 ---------------------------------------------------------------------------

Topologies differ in total number of bonds
Writing topology from bond orders to xtbtopo.mol

molecular dipole:
                 x           y           z       tot (Debye)
 q only:       -2.221      -0.477       0.609
   full:       -0.691      -0.159       0.379       2.044
molecular quadrupole (traceless):
                xx          xy          yy          xz          yz          zz
 q only:      -25.508      -6.027      11.304      -2.555      -1.004      14.204
  q+dip:       -9.565      -2.382       2.312       7.080       0.976       7.253
   full:       -9.053      -3.044       6.293       5.729       1.106       2.759

           -------------------------------------------------
          |                Geometry Summary                 |
           -------------------------------------------------

      molecular mass/u    :       58.0883368
   center of mass at/Å    :        3.2888997       0.3741207       1.2873992
  moments of inertia/u·Å² :        0.4825027E+02   0.9665683E+02   0.1417471E+03
rotational constants/cm⁻¹ :        0.3493790E+00   0.1744071E+00   0.1189275E+00

 * 8 selected distances

     #   Z          #   Z                                           value/Å
     1   4 Be       2   4 Be                                      1.8918391 (max)
     1   4 Be       3   6 C                                       1.6610424
Note: The following floating-point exceptions are signalling: IEEE_UNDERFLOW_FLAG
normal termination of xtb
     3   6 C        4   6 C                                       1.2369029
     2   4 Be       5   6 C                                       1.7913996
     4   6 C        5   6 C                                       1.4242931
     5   6 C        6   1 H                                       1.0920810
     5   6 C        7   1 H                                       1.0921007
     8   1 H        9   1 H                                       0.7862299 (min)

 * 5 distinct bonds (by element types)

   Z      Z             #   av. dist./Å        max./Å        min./Å
   1 H    1 H           1     0.7862299     0.7862299     0.7862299
   4 Be   4 Be          1     1.8918391     1.8918391     1.8918391
   1 H    6 C           2     1.0920909     1.0921007     1.0920810
   4 Be   6 C           2     1.7262210     1.7913996     1.6610424
   6 C    6 C           2     1.3305980     1.4242931     1.2369029


optimized geometry written to: xtbopt.xyz


           -------------------------------------------------
          | TOTAL ENERGY               -9.608346174620 Eh   |
          | GRADIENT NORM               0.000465233977 Eh/α |
          | HOMO-LUMO GAP               3.141047902095 eV   |
           -------------------------------------------------
########################################################################
[WARNING] Runtime exception occurred
-2- restart_readRestart: Dimension missmatch in restart file.
-1- restart_readRestart: Number of electron missmatch in restart file.
########################################################################

------------------------------------------------------------------------
 * finished run on 2025/06/07 at 03:27:51.662     
------------------------------------------------------------------------
 total:
 * wall-time:     0 d,  0 h,  0 min,  0.325 sec
 *  cpu-time:     0 d,  0 h,  0 min,  4.263 sec
 * ratio c/w:    13.105 speedup
 SCF:
 * wall-time:     0 d,  0 h,  0 min,  0.071 sec
 *  cpu-time:     0 d,  0 h,  0 min,  0.925 sec
 * ratio c/w:    13.032 speedup
 ANC optimizer:
 * wall-time:     0 d,  0 h,  0 min,  0.251 sec
 *  cpu-time:     0 d,  0 h,  0 min,  3.301 sec
 * ratio c/w:    13.154 speedup

