      -----------------------------------------------------------      
     |                   =====================                   |     
     |                           x T B                           |     
     |                   =====================                   |     
     |                         S. Grimme                         |     
     |          Mulliken Center for Theoretical Chemistry        |     
     |                    University of Bonn                     |     
      -----------------------------------------------------------      

   * xtb version 6.5.1 (conda-forge) compiled by 'runner@Mac-1657629245115.local' on 2022-07-12

   xtb is free software: you can redistribute it and/or modify it under
   the terms of the GNU Lesser General Public License as published by
   the Free Software Foundation, either version 3 of the License, or
   (at your option) any later version.
   
   xtb is distributed in the hope that it will be useful,
   but WITHOUT ANY WARRANTY; without even the implied warranty of
   MERCHANTABILITY or FITNESS FOR A PARTICULAR PURPOSE.  See the
   GNU Lesser General Public License for more details.
   
   Cite this work as:
   * C. Bannwarth, E. Caldeweyher, S. Ehlert, A. Hansen, P. Pracht,
     J. Seibert, S. Spicher, S. Grimme, WIREs Comput. Mol. Sci., 2020, 11,
     e01493. DOI: 10.1002/wcms.1493
   
   for GFN2-xTB:
   * C. Bannwarth, S. Ehlert and S. Grimme., J. Chem. Theory Comput., 2019,
     15, 1652-1671. DOI: 10.1021/acs.jctc.8b01176
   for GFN1-xTB:
   * S. Grimme, C. Bannwarth, P. Shushkov, J. Chem. Theory Comput., 2017,
     13, 1989-2009. DOI: 10.1021/acs.jctc.7b00118
   for GFN0-xTB:
   * P. Pracht, E. Caldeweyher, S. Ehlert, S. Grimme, ChemRxiv, 2019, preprint.
     DOI: 10.26434/chemrxiv.8326202.v1
   for GFN-FF:
   * S. Spicher and S. Grimme, Angew. Chem. Int. Ed., 2020, 59, 15665-15673.
     DOI: 10.1002/anie.202004239
   
   for ALPB and GBSA implicit solvation:
   * S. Ehlert, M. Stahn, S. Spicher, S. Grimme, J. Chem. Theory Comput.,
     2021, 17, 4250-4261. DOI: 10.1021/acs.jctc.1c00471
   
   for DFT-D4:
   * E. Caldeweyher, C. Bannwarth and S. Grimme, J. Chem. Phys., 2017,
     147, 034112. DOI: 10.1063/1.4993215
   * E. Caldeweyher, S. Ehlert, A. Hansen, H. Neugebauer, S. Spicher,
     C. Bannwarth and S. Grimme, J. Chem. Phys., 2019, 150, 154122.
     DOI: 10.1063/1.5090222
   * E. Caldeweyher, J.-M. Mewes, S. Ehlert and S. Grimme, Phys. Chem. Chem. Phys.
     2020, 22, 8499-8512. DOI: 10.1039/D0CP00502A
   
   for sTDA-xTB:
   * S. Grimme and C. Bannwarth, J. Chem. Phys., 2016, 145, 054103.
     DOI: 10.1063/1.4959605
   
   in the mass-spec context:
   * V. Asgeirsson, C. Bauer and S. Grimme, Chem. Sci., 2017, 8, 4879.
     DOI: 10.1039/c7sc00601b
   * J. Koopman and S. Grimme, ACS Omega 2019, 4, 12, 15120-15133.
     DOI: 10.1021/acsomega.9b02011
   
   for metadynamics refer to:
   * S. Grimme, J. Chem. Theory Comput., 2019, 155, 2847-2862
     DOI: 10.1021/acs.jctc.9b00143
   
   for SPH calculations refer to:
   * S. Spicher and S. Grimme, J. Chem. Theory Comput., 2021, 17, 1701-1714
     DOI: 10.1021/acs.jctc.0c01306
   
   with help from (in alphabetical order)
   P. Atkinson, C. Bannwarth, F. Bohle, G. Brandenburg, E. Caldeweyher
   M. Checinski, S. Dohm, S. Ehlert, S. Ehrlich, I. Gerasimov, C. Hölzer
   A. Katbashev, J. Koopman, C. Lavigne, S. Lehtola, F. März, M. Müller,
   F. Musil, H. Neugebauer, J. Pisarek, C. Plett, P. Pracht, F. Pultar,
   J. Seibert, P. Shushkov, S. Spicher, M. Stahn, M. Steiner, T. Strunk,
   J. Stückrath, T. Rose, and J. Unsleber
   
 * started run on 2025/06/07 at 03:27:51.911     

           -------------------------------------------------
          |                Calculation Setup                |
           -------------------------------------------------

          program call               : xtb Be2C4H5.xyz --gfn 2 --opt
          coordinate file            : Be2C4H5.xyz
          omp threads                :                    16

   ID    Z sym.   atoms
    1    4 Be     1, 2
    2    6 C      3-6
    3    1 H      7-11

molecular fragmentation (1/2 indicates fragments):
12222222222
# atoms in fragment 1/2:     1    10
 fragment masses (1/2) :        9.01       62.09
CMA distance (Bohr)    :   8.303
constraining FC (au)   :  0.0500

           -------------------------------------------------
          |                 G F N 2 - x T B                 |
           -------------------------------------------------

        Reference                      10.1021/acs.jctc.8b01176
      * Hamiltonian:
        H0-scaling (s, p, d)           1.850000    2.230000    2.230000
        zeta-weighting                 0.500000
      * Dispersion:
        s8                             2.700000
        a1                             0.520000
        a2                             5.000000
        s9                             5.000000
      * Repulsion:
        kExp                           1.500000    1.000000
        rExp                           1.000000
      * Coulomb:
        alpha                          2.000000
        third order                    shell-resolved
        anisotropic                    true
        a3                             3.000000
        a5                             4.000000
        cn-shift                       1.200000
        cn-exp                         4.000000
        max-rad                        5.000000


          ...................................................
          :                      SETUP                      :
          :.................................................:
          :  # basis functions                  29          :
          :  # atomic orbitals                  29          :
          :  # shells                           17          :
          :  # electrons                        25          :
          :  max. iterations                   250          :
          :  Hamiltonian                  GFN2-xTB          :
          :  restarted?                      false          :
          :  GBSA solvation                  false          :
          :  PC potential                    false          :
          :  electronic temp.          300.0000000     K    :
          :  accuracy                    1.0000000          :
          :  -> integral cutoff          0.2500000E+02      :
          :  -> integral neglect         0.1000000E-07      :
          :  -> SCF convergence          0.1000000E-05 Eh   :
          :  -> wf. convergence          0.1000000E-03 e    :
          :  Broyden damping             0.4000000          :
          ...................................................

 iter      E             dE          RMSdq      gap      omega  full diag
   1     25.7637559  0.257638E+02  0.300E+01    0.95       0.0  T
   2     -4.3929333 -0.301567E+02  0.190E+01    0.09       1.0  T
   3     -6.1039121 -0.171098E+01  0.153E+01    0.39       1.0  T
   4     -5.7266461  0.377266E+00  0.136E+01    1.07       1.0  T
   5     -7.2406347 -0.151399E+01  0.109E+01    0.74       1.0  T
   6     -7.2597853 -0.191506E-01  0.102E+01    0.24       1.0  T
   7    -10.8240661 -0.356428E+01  0.175E+01    0.46       1.0  T
   8     -8.0000405  0.282403E+01  0.781E+00    0.12       1.0  T
   9    -10.7166044 -0.271656E+01  0.208E+01    0.36       1.0  T
  10    -10.4938607  0.222744E+00  0.208E+01    0.38       1.0  T
  11    -10.8749608 -0.381100E+00  0.199E+01    0.21       1.0  T
  12     24.2599098  0.351349E+02  0.263E+01    1.18       1.0  T
  13      0.0817845 -0.241781E+02  0.199E+01    0.19       1.0  T
  14      2.6179320  0.253615E+01  0.194E+01    0.06       1.0  T
  15      3.1074841  0.489552E+00  0.192E+01    0.05       1.0  T
  16     15.0568682  0.119494E+02  0.208E+01    0.39       1.0  T
  17     22.8227821  0.776591E+01  0.251E+01    0.95       1.0  T
  18     11.7028899 -0.111199E+02  0.191E+01    0.30       1.0  T
  19      9.5878976 -0.211499E+01  0.188E+01    0.20       1.0  T
  20      7.5279166 -0.205998E+01  0.188E+01    0.10       1.0  T
  21      6.5741931 -0.953724E+00  0.188E+01    0.07       1.0  T
  22      6.0406052 -0.533588E+00  0.189E+01    0.05       1.0  T
  23      7.3105170  0.126991E+01  0.187E+01    0.10       1.0  T
  24     -6.1768061 -0.134873E+02  0.174E+01    0.49       1.0  T
  25     -9.7853396 -0.360853E+01  0.158E+01    0.13       1.0  T
  26    -10.9268878 -0.114155E+01  0.178E+01    0.29       1.0  T
  27    -10.6235229  0.303365E+00  0.170E+01    0.57       1.0  T
  28    -10.8994122 -0.275889E+00  0.170E+01    0.55       1.0  T
  29     -8.4180158  0.248140E+01  0.905E+00    0.27       1.0  T
  30     -8.0708589  0.347157E+00  0.908E+00    0.18       1.0  T
  31     -8.5396902 -0.468831E+00  0.882E+00    0.36       1.0  T
  32     -7.8657229  0.673967E+00  0.828E+00    0.10       1.0  T
  33     -7.9252119 -0.594889E-01  0.801E+00    0.14       1.0  T
  34     -7.9656815 -0.404696E-01  0.784E+00    0.15       1.0  T
  35     -9.9741243 -0.200844E+01  0.999E+00    0.49       1.0  T
  36    -10.9723953 -0.998271E+00  0.144E+01    0.53       1.0  T
  37    -10.9750014 -0.260614E-02  0.144E+01    0.53       1.0  T
  38    -11.0013664 -0.263650E-01  0.145E+01    0.52       1.0  T
  39    -11.0960175 -0.946511E-01  0.144E+01    0.47       1.0  T
  40    -11.0609546  0.350629E-01  0.143E+01    0.49       1.0  T
  41    -11.2209842 -0.160030E+00  0.141E+01    0.33       1.0  T
  42    -11.1404055  0.805788E-01  0.144E+01    0.41       1.0  T
  43    -11.2053805 -0.649750E-01  0.138E+01    0.34       1.0  T
  44    -11.2118429 -0.646237E-02  0.140E+01    0.33       1.0  T
  45    -11.1798083  0.320346E-01  0.142E+01    0.37       1.0  T
  46    -11.1170957  0.627126E-01  0.138E+01    0.42       1.0  T
  47    -11.2132606 -0.961650E-01  0.128E+01    0.34       1.0  T
  48    -11.0938987  0.119362E+00  0.131E+01    0.41       1.0  T
  49    -10.7842446  0.309654E+00  0.119E+01    0.49       1.0  T
  50    -10.8925084 -0.108264E+00  0.123E+01    0.48       1.0  T
  51    -10.9251145 -0.326061E-01  0.123E+01    0.48       1.0  T
  52    -10.9215750  0.353947E-02  0.119E+01    0.46       1.0  T
  53    -10.9424973 -0.209223E-01  0.121E+01    0.47       1.0  T
  54    -10.9540093 -0.115120E-01  0.119E+01    0.46       1.0  T
  55    -10.9794952 -0.254859E-01  0.117E+01    0.45       1.0  T
  56    -10.7386089  0.240886E+00  0.106E+01    0.47       1.0  T
  57    -10.8690768 -0.130468E+00  0.110E+01    0.47       1.0  T
  58    -10.7400216  0.129055E+00  0.104E+01    0.49       1.0  T
  59    -10.6847537  0.552680E-01  0.101E+01    0.48       1.0  T
  60    -10.7853374 -0.100584E+00  0.106E+01    0.46       1.0  T
  61    -10.1735925  0.611745E+00  0.865E+00    0.41       1.0  T
  62    -10.7942103 -0.620618E+00  0.114E+01    0.41       1.0  T
  63    -10.2285100  0.565700E+00  0.956E+00    0.39       1.0  T
  64    -10.6153049 -0.386795E+00  0.114E+01    0.40       1.0  T
  65    -10.5197185  0.955864E-01  0.113E+01    0.39       1.0  T
  66    -10.7178463 -0.198128E+00  0.128E+01    0.38       1.0  T
  67    -10.7633388 -0.454926E-01  0.133E+01    0.38       1.0  T
  68    -10.7903925 -0.270537E-01  0.135E+01    0.38       1.0  T
  69    -10.7885495  0.184299E-02  0.134E+01    0.38       1.0  T
  70    -10.8161183 -0.275688E-01  0.130E+01    0.39       1.0  T
  71    -10.8304500 -0.143317E-01  0.129E+01    0.39       1.0  T
  72    -10.8251077  0.534224E-02  0.129E+01    0.39       1.0  T
  73    -10.8039280  0.211798E-01  0.130E+01    0.39       1.0  T
  74    -10.7989409  0.498706E-02  0.130E+01    0.39       1.0  T
  75    -10.8254569 -0.265160E-01  0.129E+01    0.39       1.0  T
  76    -10.8584253 -0.329684E-01  0.127E+01    0.38       1.0  T
  77    -10.8816379 -0.232126E-01  0.123E+01    0.37       1.0  T
  78    -10.9249758 -0.433380E-01  0.117E+01    0.36       1.0  T
  79    -10.9606800 -0.357041E-01  0.110E+01    0.35       1.0  T
  80    -11.0363230 -0.756431E-01  0.101E+01    0.34       1.0  T
  81    -11.0435106 -0.718753E-02  0.979E+00    0.33       1.0  T
  82    -11.1166709 -0.731603E-01  0.917E+00    0.31       1.0  T
  83    -11.1129027  0.376813E-02  0.934E+00    0.31       1.0  T
  84    -11.1153716 -0.246883E-02  0.948E+00    0.32       1.0  T
  85    -11.1325537 -0.171821E-01  0.897E+00    0.32       1.0  T
  86    -11.1561925 -0.236388E-01  0.804E+00    0.31       1.0  T
  87    -11.1372076  0.189849E-01  0.710E+00    0.31       1.0  T
  88    -11.1576441 -0.204365E-01  0.602E+00    0.29       1.0  T
  89    -11.1481160  0.952809E-02  0.486E+00    0.28       1.0  T
  90    -11.1692194 -0.211034E-01  0.383E+00    0.25       1.0  T
  91    -11.1775164 -0.829706E-02  0.322E+00    0.24       1.0  T
  92    -11.2125045 -0.349881E-01  0.263E+00    0.22       1.0  T
  93    -11.2183832 -0.587873E-02  0.245E+00    0.21       1.0  T
  94    -11.2500103 -0.316271E-01  0.198E+00    0.20       1.0  T
  95    -11.2442971  0.571321E-02  0.190E+00    0.20       1.0  T
  96    -11.2560274 -0.117302E-01  0.176E+00    0.20       1.0  T
  97    -11.2715602 -0.155329E-01  0.169E+00    0.19       1.0  T
  98    -11.2887345 -0.171743E-01  0.163E+00    0.19       1.0  T
  99    -11.3030169 -0.142823E-01  0.158E+00    0.19       1.0  T
 100    -11.3054332 -0.241637E-02  0.154E+00    0.18       1.0  T
 101    -11.3117057 -0.627249E-02  0.147E+00    0.18       1.0  T
 102    -11.3250306 -0.133248E-01  0.137E+00    0.18       1.0  T
 103    -11.3459614 -0.209308E-01  0.128E+00    0.17       1.0  T
 104    -11.3512366 -0.527521E-02  0.125E+00    0.17       1.0  T
 105    -11.3476702  0.356645E-02  0.115E+00    0.17       1.0  T
 106    -11.3493842 -0.171403E-02  0.110E+00    0.17       1.0  T
 107    -11.3590946 -0.971046E-02  0.110E+00    0.17       1.0  T
 108    -11.3617324 -0.263771E-02  0.114E+00    0.17       1.0  T
 109    -11.3628107 -0.107838E-02  0.114E+00    0.17       1.0  T
 110    -11.3723376 -0.952689E-02  0.113E+00    0.16       1.0  T
 111    -11.3872651 -0.149275E-01  0.130E+00    0.16       1.0  T
 112    -11.3924946 -0.522955E-02  0.146E+00    0.15       1.0  T
 113    -11.3926144 -0.119771E-03  0.146E+00    0.15       1.0  T
 114    -11.3945568 -0.194239E-02  0.152E+00    0.15       1.0  T
 115    -11.3913644  0.319242E-02  0.141E+00    0.15       1.0  T
 116    -11.3877728  0.359160E-02  0.128E+00    0.16       1.0  T
 117    -11.3878375 -0.647770E-04  0.124E+00    0.16       1.0  T
 118    -11.3937792 -0.594164E-02  0.128E+00    0.15       1.0  T
 119    -11.3969056 -0.312642E-02  0.133E+00    0.15       1.0  T
 120    -11.3973261 -0.420513E-03  0.132E+00    0.15       1.0  T
 121    -11.3965045  0.821581E-03  0.103E+00    0.15       1.0  T
 122    -11.3948659  0.163866E-02  0.827E-01    0.15       1.0  T
 123    -11.3949640 -0.981767E-04  0.748E-01    0.15       1.0  T
 124    -11.3972721 -0.230805E-02  0.752E-01    0.15       1.0  T
 125    -11.4011167 -0.384465E-02  0.827E-01    0.15       1.0  T
 126    -11.4025630 -0.144625E-02  0.843E-01    0.15       1.0  T
 127    -11.4034213 -0.858273E-03  0.815E-01    0.15       1.0  T
 128    -11.4041006 -0.679291E-03  0.725E-01    0.15       1.0  T
 129    -11.4039560  0.144559E-03  0.649E-01    0.15       1.0  T
 130    -11.4037252  0.230797E-03  0.601E-01    0.14       1.0  T
 131    -11.4040673 -0.342069E-03  0.600E-01    0.14       1.0  T
 132    -11.4053749 -0.130767E-02  0.598E-01    0.14       1.0  T
 133    -11.4058392 -0.464225E-03  0.588E-01    0.14       1.0  T
 134    -11.4055004  0.338744E-03  0.492E-01    0.14       1.0  T
 135    -11.4053980  0.102453E-03  0.422E-01    0.14       1.0  T
 136    -11.4052231  0.174891E-03  0.363E-01    0.14       1.0  T
 137    -11.4055517 -0.328653E-03  0.338E-01    0.14       1.0  T
 138    -11.4064134 -0.861644E-03  0.329E-01    0.14       1.0  T
 139    -11.4068992 -0.485780E-03  0.316E-01    0.14       1.0  T
 140    -11.4074520 -0.552821E-03  0.320E-01    0.14       1.0  T
 141    -11.4076513 -0.199303E-03  0.295E-01    0.14       1.0  T
 142    -11.4078123 -0.161022E-03  0.289E-01    0.14       1.0  T
 143    -11.4078472 -0.349197E-04  0.272E-01    0.14       1.0  T
 144    -11.4078706 -0.233463E-04  0.282E-01    0.14       1.0  T
 145    -11.4078450  0.255534E-04  0.273E-01    0.14       1.0  T
 146    -11.4078360  0.901219E-05  0.263E-01    0.14       1.0  T
 147    -11.4078610 -0.249845E-04  0.171E-01    0.14       1.0  T
 148    -11.4078951 -0.340662E-04  0.156E-01    0.14       1.0  T
 149    -11.4079321 -0.370624E-04  0.952E-02    0.14       1.0  T
 150    -11.4079295  0.263792E-05  0.144E-01    0.14       1.0  T
 151    -11.4079579 -0.283905E-04  0.108E-01    0.14       1.0  T
 152    -11.4079292  0.286947E-04  0.143E-01    0.14       1.0  T
 153    -11.4079630 -0.338261E-04  0.108E-01    0.14       1.0  T
 154    -11.4079534  0.959234E-05  0.119E-01    0.14       1.0  T
 155    -11.4079764 -0.229855E-04  0.940E-02    0.14       1.0  T
 156    -11.4079743  0.207340E-05  0.967E-02    0.14       1.0  T
 157    -11.4079896 -0.152951E-04  0.784E-02    0.14       1.0  T
 158    -11.4079877  0.196048E-05  0.779E-02    0.14       1.0  T
 159    -11.4079960 -0.835872E-05  0.649E-02    0.14       1.0  T
 160    -11.4079984 -0.239803E-05  0.588E-02    0.14       1.0  T
 161    -11.4080051 -0.668937E-05  0.458E-02    0.14       1.0  T
 162    -11.4080079 -0.284513E-05  0.382E-02    0.14       1.0  T
 163    -11.4080106 -0.268910E-05  0.298E-02    0.14       1.0  T
 164    -11.4080119 -0.130530E-05  0.240E-02    0.14       1.3  T
 165    -11.4080130 -0.106228E-05  0.178E-02    0.14       1.7  T
 166    -11.4080136 -0.604585E-06  0.123E-02    0.14       2.4  T
 167    -11.4080139 -0.325689E-06  0.700E-03    0.14       4.3  T
 168    -11.4080140 -0.973570E-07  0.315E-03    0.14       9.6  T
 169    -11.4080140 -0.100761E-07  0.163E-03    0.14      18.5  T
 170    -11.4080140  0.114687E-07  0.143E-03    0.14      21.1  T
 171    -11.4080140 -0.851549E-08  0.106E-03    0.14      28.4  T
 172    -11.4080140 -0.919086E-08  0.485E-04    0.14      62.2  T
 173    -11.4080140 -0.233179E-09  0.373E-04    0.14      80.8  T

   *** convergence criteria satisfied after 173 iterations ***

         #    Occupation            Energy/Eh            Energy/eV
      -------------------------------------------------------------
         1        2.0000           -0.5941104             -16.1666
       ...           ...                  ...                  ...
         7        2.0000           -0.3937433             -10.7143
         8        2.0000           -0.3615075              -9.8371
         9        2.0000           -0.3374895              -9.1836
        10        2.0000           -0.3365126              -9.1570
        11        2.0000           -0.3288083              -8.9473
        12        1.8848           -0.2994198              -8.1476
        13        1.0517           -0.2955198              -8.0415 (HOMO)
        14        0.0634           -0.2903681              -7.9013 (LUMO)
        15        0.0000           -0.2815971              -7.6626
        16                         -0.2640933              -7.1863
        17                         -0.2520666              -6.8591
        18                         -0.2467882              -6.7154
       ...                                ...                  ...
        29                          0.6302976              17.1513
      -------------------------------------------------------------
                  HL-Gap            0.0051517 Eh            0.1402 eV
             Fermi-level           -0.2952038 Eh           -8.0329 eV

 SCC (total)                   0 d,  0 h,  0 min,  0.079 sec
 SCC setup                      ...        0 min,  0.000 sec (  0.090%)
 Dispersion                     ...        0 min,  0.000 sec (  0.161%)
 classical contributions        ...        0 min,  0.000 sec (  0.044%)
 integral evaluation            ...        0 min,  0.000 sec (  0.216%)
 iterations                     ...        0 min,  0.078 sec ( 98.278%)
 molecular gradient             ...        0 min,  0.001 sec (  1.065%)
 printout                       ...        0 min,  0.000 sec (  0.127%)

         :::::::::::::::::::::::::::::::::::::::::::::::::::::
         ::                     SUMMARY                     ::
         :::::::::::::::::::::::::::::::::::::::::::::::::::::
         :: total energy             -11.337502740309 Eh    ::
         :: gradient norm              0.301893845988 Eh/a0 ::
         :: HOMO-LUMO gap              0.140183952527 eV    ::
         ::.................................................::
         :: SCC energy               -11.408014044234 Eh    ::
         :: -> isotropic ES           -0.099518108969 Eh    ::
         :: -> anisotropic ES          0.006630904641 Eh    ::
         :: -> anisotropic XC         -0.017453919074 Eh    ::
         :: -> dispersion             -0.009586644993 Eh    ::
         :: repulsion energy           0.070478946553 Eh    ::
         :: add. restraining           0.000000000000 Eh    ::
         :: total charge              -0.000000000001 e     ::
         :::::::::::::::::::::::::::::::::::::::::::::::::::::

      ----------------------------------------------------------- 
     |                   =====================                   |
     |                        A N C O P T                        |
     |                   =====================                   |
     |               Approximate Normal Coordinate               |
     |                Rational Function Optimizer                |
      ----------------------------------------------------------- 

          ...................................................
          :                      SETUP                      :
          :.................................................:
          :   optimization level            normal          :
          :   max. optcycles                   200          :
          :   ANC micro-cycles                  20          :
          :   degrees of freedom                27          :
          :.................................................:
          :   RF solver                   davidson          :
          :   write xtbopt.log                true          :
          :   linear?                        false          :
          :   energy convergence         0.5000000E-05 Eh   :
          :   grad. convergence          0.1000000E-02 Eh/α :
          :   maximium RF displ.         1.0000000          :
          :   Hlow (freq-cutoff)         0.1000000E-01      :
          :   Hmax (freq-cutoff)         5.0000000          :
          :   S6 in model hess.         20.0000000          :
          ...................................................

generating ANC from model Hessian ...
Using Lindh-Hessian (1995)
 Shifting diagonal of input Hessian by    2.1893378520018845E-002
 Lowest  eigenvalues of input Hessian
    0.010000    0.019740    0.020078    0.021704    0.000000    0.000000
    0.000000    0.000000    0.000000    0.000000    0.021915    0.022003
    0.022214    0.022621    0.023018    0.023365    0.023534    0.024274
 Highest eigenvalues
    0.235661    0.249762    0.275937    0.302589    0.356234    0.386538


........................................................................
.............................. CYCLE    1 ..............................
........................................................................
   1    -11.4080140 -0.114080E+02  0.400E-04    0.14       0.0  T
   2    -11.4080135  0.590316E-06  0.918E-03    0.14       3.3  T
   3    -11.4080140 -0.589738E-06  0.486E-04    0.14      62.1  T
   4    -11.4080140  0.172122E-09  0.542E-04    0.14      55.7  T
     SCC iter.                  ...        0 min,  0.001 sec
     gradient                   ...        0 min,  0.001 sec
 * total energy  :   -11.3375027 Eh     change        0.1774191E-08 Eh
   gradient norm :     0.3018261 Eh/α   predicted     0.0000000E+00 (-100.00%)
   displ. norm   :     0.7769431 α      lambda       -0.2266348E+00
   maximum displ.:     0.4898278 α      in ANC's #21, #20, #1, ...

........................................................................
.............................. CYCLE    2 ..............................
........................................................................
   1    -11.5355817 -0.115356E+02  0.358E+00    0.14       0.0  T
   2    -10.9314827  0.604099E+00  0.753E+00    0.24       1.0  T
   3    -11.4818962 -0.550413E+00  0.389E+00    0.22       1.0  T
   4    -11.3241146  0.157782E+00  0.414E+00    0.16       1.0  T
   5    -11.4813947 -0.157280E+00  0.229E+00    0.19       1.0  T
   6    -11.4452748  0.361199E-01  0.490E+00    0.17       1.0  T
   7    -11.4614878 -0.162130E-01  0.446E+00    0.16       1.0  T
   8    -11.4733575 -0.118697E-01  0.429E+00    0.14       1.0  T
   9    -11.4813518 -0.799426E-02  0.412E+00    0.14       1.0  T
  10    -11.5973263 -0.115974E+00  0.545E-01    0.08       1.0  T
  11    -11.5525812  0.447450E-01  0.276E+00    0.17       1.0  T
  12    -11.5644944 -0.119131E-01  0.234E+00    0.15       1.0  T
  13    -11.5784242 -0.139298E-01  0.186E+00    0.13       1.0  T
  14    -11.5841758 -0.575164E-02  0.153E+00    0.12       1.0  T
  15    -11.5944591 -0.102833E-01  0.877E-01    0.09       1.0  T
  16    -11.5968424 -0.238326E-02  0.653E-01    0.09       1.0  T
  17    -11.5991025 -0.226009E-02  0.322E-01    0.08       1.0  T
  18    -11.5997956 -0.693145E-03  0.771E-02    0.08       1.0  T
  19    -11.5997729  0.226886E-04  0.121E-01    0.07       1.0  T
  20    -11.5998619 -0.890022E-04  0.812E-03    0.08       3.7  T
  21    -11.5998596  0.234708E-05  0.193E-02    0.08       1.6  T
  22    -11.5998619 -0.233805E-05  0.520E-03    0.08       5.8  T
  23    -11.5998621 -0.181735E-06  0.930E-04    0.08      32.4  T
  24    -11.5998620  0.103577E-06  0.412E-03    0.08       7.3  T
  25    -11.5998621 -0.102587E-06  0.592E-04    0.08      51.0  T
     SCC iter.                  ...        0 min,  0.005 sec
     gradient                   ...        0 min,  0.000 sec
 * total energy  :   -11.5456571 Eh     change       -0.2081544E+00 Eh
   gradient norm :     0.2926915 Eh/α   predicted    -0.1817204E+00 ( -12.70%)
   displ. norm   :     0.9692577 α      lambda       -0.2795456E+00
   maximum displ.:     0.7770597 α      in ANC's #21, #27, #20, ...

........................................................................
.............................. CYCLE    3 ..............................
........................................................................
   1    -11.7962161 -0.117962E+02  0.507E+00    0.18       0.0  T
   2    -10.3528019  0.144341E+01  0.133E+01    1.77       1.0  T
   3    -11.6316030 -0.127880E+01  0.638E+00    0.13       1.0  T
   4    -11.7089553 -0.773523E-01  0.520E+00    0.29       1.0  T
   5    -11.7509772 -0.420219E-01  0.448E+00    0.12       1.0  T
   6    -11.7939167 -0.429395E-01  0.306E+00    0.05       1.0  T
   7    -11.6804260  0.113491E+00  0.630E+00    0.49       1.0  T
   8    -11.6823397 -0.191362E-02  0.616E+00    0.38       1.0  T
   9    -11.7914543 -0.109115E+00  0.479E+00    0.13       1.0  T
  10    -11.9239652 -0.132511E+00  0.121E+00    0.01       1.0  T
  11    -11.9262727 -0.230747E-02  0.864E-01    0.03       1.0  T
  12    -11.9237466  0.252604E-02  0.119E+00    0.01       1.0  T
  13    -11.9315106 -0.776397E-02  0.310E-01    0.02       1.0  T
  14    -11.9314900  0.206263E-04  0.317E-01    0.03       1.0  T
  15    -11.9302866  0.120335E-02  0.528E-01    0.04       1.0  T
  16    -11.9313027 -0.101605E-02  0.341E-01    0.03       1.0  T
  17    -11.9294584  0.184426E-02  0.645E-01    0.02       1.0  T
  18    -11.9315318 -0.207337E-02  0.288E-01    0.02       1.0  T
  19    -11.9320130 -0.481229E-03  0.102E-01    0.02       1.0  T
  20    -11.9320624 -0.494282E-04  0.624E-02    0.02       1.0  T
  21    -11.9320657 -0.326074E-05  0.608E-02    0.02       1.0  T
  22    -11.9320822 -0.164652E-04  0.304E-02    0.03       1.0  T
  23    -11.9320862 -0.399840E-05  0.180E-02    0.03       1.7  T
  24    -11.9320876 -0.145358E-05  0.110E-02    0.03       2.7  T
  25    -11.9320884 -0.760821E-06  0.326E-03    0.03       9.2  T
  26    -11.9320884 -0.589515E-07  0.127E-03    0.03      23.7  T
  27    -11.9320884  0.232053E-08  0.139E-03    0.03      21.6  T
  28    -11.9320884 -0.537452E-08  0.978E-04    0.03      30.8  T
  29    -11.9320884 -0.494270E-08  0.392E-04    0.03      77.0  T
     SCC iter.                  ...        0 min,  0.005 sec
     gradient                   ...        0 min,  0.001 sec
 * total energy  :   -11.7704635 Eh     change       -0.2248064E+00 Eh
   gradient norm :     0.1836553 Eh/α   predicted    -0.2710838E+00 (  20.59%)
   displ. norm   :     0.7680002 α      lambda       -0.1275540E+00
   maximum displ.:     0.3842798 α      in ANC's #21, #27, #18, ...

........................................................................
.............................. CYCLE    4 ..............................
........................................................................
   1    -12.0429005 -0.120429E+02  0.354E+00    0.55       0.0  T
   2    -11.5700063  0.472894E+00  0.820E+00    1.46       1.0  T
   3    -12.0263393 -0.456333E+00  0.335E+00    0.52       1.0  T
   4    -11.8704911  0.155848E+00  0.583E+00    0.63       1.0  T
   5    -12.0127316 -0.142240E+00  0.384E+00    0.43       1.0  T
   6    -12.0185405 -0.580894E-02  0.395E+00    0.44       1.0  T
   7    -12.0341916 -0.156511E-01  0.333E+00    0.42       1.0  T
   8    -12.0962380 -0.620464E-01  0.149E+00    0.38       1.0  T
   9    -12.1063917 -0.101537E-01  0.107E+00    0.43       1.0  T
  10    -12.1091700 -0.277830E-02  0.762E-01    0.42       1.0  T
  11    -12.1124712 -0.330125E-02  0.309E-01    0.40       1.0  T
  12    -12.1112830  0.118821E-02  0.539E-01    0.39       1.0  T
  13    -12.1124553 -0.117230E-02  0.214E-01    0.41       1.0  T
  14    -12.1124811 -0.257784E-04  0.220E-01    0.41       1.0  T
  15    -12.1125024 -0.212512E-04  0.208E-01    0.41       1.0  T
  16    -12.1125890 -0.866463E-04  0.156E-01    0.41       1.0  T
  17    -12.1126757 -0.866603E-04  0.799E-02    0.41       1.0  T
  18    -12.1127008 -0.250938E-04  0.332E-02    0.41       1.0  T
  19    -12.1127054 -0.466027E-05  0.115E-02    0.41       2.6  T
  20    -12.1127061 -0.675009E-06  0.105E-03    0.41      28.7  T
  21    -12.1127061 -0.605813E-08  0.807E-04    0.41      37.4  T
  22    -12.1127061  0.174455E-08  0.105E-03    0.41      28.7  T
  23    -12.1127061 -0.349556E-08  0.641E-04    0.41      47.1  T
     SCC iter.                  ...        0 min,  0.004 sec
     gradient                   ...        0 min,  0.001 sec
 * total energy  :   -11.8396291 Eh     change       -0.6916562E-01 Eh
   gradient norm :     0.2544708 Eh/α   predicted    -0.1013942E+00 (  46.60%)
   displ. norm   :     0.6576469 α      lambda       -0.1131616E+00
   maximum displ.:     0.2892629 α      in ANC's #18, #12, #27, ...

........................................................................
.............................. CYCLE    5 ..............................
........................................................................
   1    -12.1640322 -0.121640E+02  0.244E+00    0.44       0.0  T
   2    -11.3768177  0.787214E+00  0.108E+01    0.86       1.0  T
   3    -12.0716858 -0.694868E+00  0.404E+00    0.51       1.0  T
   4    -12.1274435 -0.557578E-01  0.206E+00    0.44       1.0  T
   5    -12.1764177 -0.489742E-01  0.771E-01    0.46       1.0  T
   6    -12.1795813 -0.316358E-02  0.504E-01    0.46       1.0  T
   7    -12.1800226 -0.441327E-03  0.483E-01    0.46       1.0  T
   8    -12.1794867  0.535932E-03  0.498E-01    0.46       1.0  T
   9    -12.1805699 -0.108322E-02  0.435E-01    0.47       1.0  T
  10    -12.1814959 -0.926027E-03  0.226E-01    0.47       1.0  T
  11    -12.1817117 -0.215831E-03  0.873E-02    0.48       1.0  T
  12    -12.1817152 -0.342859E-05  0.837E-02    0.48       1.0  T
  13    -12.1817503 -0.350949E-04  0.360E-02    0.48       1.0  T
  14    -12.1817502  0.635885E-07  0.148E-02    0.48       2.0  T
  15    -12.1817500  0.162086E-06  0.214E-02    0.48       1.4  T
  16    -12.1817520 -0.194186E-05  0.284E-03    0.48      10.6  T
  17    -12.1817520 -0.281285E-07  0.133E-03    0.48      22.6  T
  18    -12.1817520 -0.890351E-08  0.668E-04    0.48      45.2  T
  19    -12.1817520 -0.323232E-08  0.299E-04    0.48     100.7  T
     SCC iter.                  ...        0 min,  0.003 sec
     gradient                   ...        0 min,  0.000 sec
 * total energy  :   -11.9076056 Eh     change       -0.6797652E-01 Eh
   gradient norm :     0.1006853 Eh/α   predicted    -0.8105189E-01 (  19.24%)
   displ. norm   :     0.8276642 α      lambda       -0.6816933E-01
   maximum displ.:     0.4039541 α      in ANC's #12, #18, #2, ...

........................................................................
.............................. CYCLE    6 ..............................
........................................................................
   1    -12.1812880 -0.121813E+02  0.344E+00    0.49       0.0  T
   2     -9.4925757  0.268871E+01  0.141E+01    0.28       1.0  T
   3    -11.8757345 -0.238316E+01  0.643E+00    1.23       1.0  T
   4    -11.9205666 -0.448321E-01  0.606E+00    1.31       1.0  T
   5    -11.7490950  0.171472E+00  0.610E+00    1.23       1.0  T
   6    -11.9836897 -0.234595E+00  0.470E+00    0.86       1.0  T
   7    -12.0614190 -0.777292E-01  0.377E+00    0.69       1.0  T
   8    -12.0797364 -0.183174E-01  0.344E+00    0.65       1.0  T
   9    -12.1185701 -0.388337E-01  0.281E+00    0.58       1.0  T
  10    -12.1326706 -0.141005E-01  0.256E+00    0.56       1.0  T
  11    -12.1349493 -0.227874E-02  0.252E+00    0.56       1.0  T
  12    -12.1491003 -0.141510E-01  0.230E+00    0.54       1.0  T
  13    -12.1979906 -0.488903E-01  0.106E+00    0.50       1.0  T
  14    -12.2094455 -0.114549E-01  0.439E-01    0.50       1.0  T
  15    -12.2053988  0.404670E-02  0.729E-01    0.50       1.0  T
  16    -12.2116474 -0.624860E-02  0.249E-01    0.51       1.0  T
  17    -12.2123551 -0.707729E-03  0.195E-01    0.51       1.0  T
  18    -12.2126027 -0.247567E-03  0.137E-01    0.51       1.0  T
  19    -12.2125145  0.881575E-04  0.199E-01    0.52       1.0  T
  20    -12.2123771  0.137458E-03  0.236E-01    0.52       1.0  T
  21    -12.2126638 -0.286675E-03  0.593E-02    0.52       1.0  T
  22    -12.2127018 -0.380953E-04  0.178E-02    0.52       1.7  T
  23    -12.2127016  0.238812E-06  0.230E-02    0.52       1.3  T
  24    -12.2127051 -0.344424E-05  0.436E-03    0.52       6.9  T
  25    -12.2127048  0.206338E-06  0.727E-03    0.52       4.1  T
  26    -12.2127052 -0.382919E-06  0.144E-03    0.52      20.9  T
  27    -12.2127052 -0.299768E-08  0.322E-04    0.52      93.8  T
  28    -12.2127052  0.919661E-09  0.303E-04    0.52      99.4  T
     SCC iter.                  ...        0 min,  0.004 sec
     gradient                   ...        0 min,  0.001 sec
 * total energy  :   -11.9538951 Eh     change       -0.4628948E-01 Eh
   gradient norm :     0.1271734 Eh/α   predicted    -0.5743362E-01 (  24.07%)
   displ. norm   :     0.8155133 α      lambda       -0.6473894E-01
   maximum displ.:     0.4174496 α      in ANC's #12, #2, #11, ...

........................................................................
.............................. CYCLE    7 ..............................
........................................................................
   1    -12.2915974 -0.122916E+02  0.318E+00    0.98       0.0  T
   2    -11.9567377  0.334860E+00  0.749E+00    1.04       1.0  T
   3    -12.2828524 -0.326115E+00  0.261E+00    0.97       1.0  T
   4    -12.1600501  0.122802E+00  0.287E+00    0.76       1.0  T
   5    -12.3127091 -0.152659E+00  0.654E-01    0.72       1.0  T
   6    -12.3126338  0.753016E-04  0.464E-01    0.76       1.0  T
   7    -12.3112807  0.135311E-02  0.483E-01    0.78       1.0  T
   8    -12.3117734 -0.492731E-03  0.400E-01    0.77       1.0  T
   9    -12.3139827 -0.220928E-02  0.179E-01    0.76       1.0  T
  10    -12.3140395 -0.568658E-04  0.168E-01    0.76       1.0  T
  11    -12.3141202 -0.806241E-04  0.580E-02    0.76       1.0  T
  12    -12.3141191  0.108264E-05  0.561E-02    0.76       1.0  T
  13    -12.3141314 -0.123287E-04  0.405E-02    0.77       1.0  T
  14    -12.3141451 -0.137102E-04  0.102E-02    0.76       3.0  T
  15    -12.3141455 -0.411487E-06  0.505E-03    0.76       6.0  T
  16    -12.3141457 -0.131369E-06  0.960E-04    0.76      31.4  T
  17    -12.3141457  0.653264E-09  0.614E-04    0.76      49.1  T
     SCC iter.                  ...        0 min,  0.004 sec
     gradient                   ...        0 min,  0.000 sec
 * total energy  :   -12.0003414 Eh     change       -0.4644628E-01 Eh
   gradient norm :     0.1350795 Eh/α   predicted    -0.5389720E-01 (  16.04%)
   displ. norm   :     0.7926082 α      lambda       -0.6235198E-01
   maximum displ.:     0.3655344 α      in ANC's #2, #10, #12, ...

........................................................................
.............................. CYCLE    8 ..............................
........................................................................
   1    -12.3256091 -0.123256E+02  0.299E+00    0.71       0.0  T
   2    -12.2723779  0.532313E-01  0.302E+00    0.92       1.0  T
   3    -12.2483978  0.239801E-01  0.387E+00    0.60       1.0  T
   4    -12.2671297 -0.187319E-01  0.255E+00    0.82       1.0  T
   5    -12.3316443 -0.645146E-01  0.756E-01    0.77       1.0  T
   6    -12.3353225 -0.367826E-02  0.375E-01    0.77       1.0  T
   7    -12.3348333  0.489254E-03  0.397E-01    0.78       1.0  T
   8    -12.3347829  0.503230E-04  0.331E-01    0.78       1.0  T
   9    -12.3354480 -0.665029E-03  0.189E-01    0.78       1.0  T
  10    -12.3355880 -0.140071E-03  0.121E-01    0.79       1.0  T
  11    -12.3356460 -0.579084E-04  0.540E-02    0.79       1.0  T
  12    -12.3356652 -0.192596E-04  0.203E-02    0.79       1.5  T
  13    -12.3356675 -0.228777E-05  0.283E-03    0.79      10.6  T
  14    -12.3356675 -0.311733E-07  0.139E-03    0.79      21.7  T
  15    -12.3356675 -0.137966E-07  0.549E-04    0.79      54.9  T
  16    -12.3356675 -0.101751E-08  0.243E-04    0.79     124.1  T
     SCC iter.                  ...        0 min,  0.002 sec
     gradient                   ...        0 min,  0.001 sec
 * total energy  :   -12.0246984 Eh     change       -0.2435703E-01 Eh
   gradient norm :     0.1846406 Eh/α   predicted    -0.5076164E-01 ( 108.41%)
   displ. norm   :     0.6299848 α      lambda       -0.5032666E-01
   maximum displ.:     0.2948694 α      in ANC's #3, #11, #6, ...

........................................................................
.............................. CYCLE    9 ..............................
........................................................................
   1    -12.3644123 -0.123644E+02  0.170E+00    0.86       0.0  T
   2    -12.3507687  0.136436E-01  0.208E+00    0.76       1.0  T
   3    -12.3602758 -0.950709E-02  0.108E+00    0.89       1.0  T
   4    -12.2997874  0.604883E-01  0.253E+00    0.75       1.0  T
   5    -12.3665966 -0.668092E-01  0.399E-01    0.85       1.0  T
   6    -12.3665900  0.662740E-05  0.376E-01    0.84       1.0  T
   7    -12.3668772 -0.287198E-03  0.317E-01    0.85       1.0  T
   8    -12.3672893 -0.412099E-03  0.181E-01    0.86       1.0  T
   9    -12.3675646 -0.275329E-03  0.698E-02    0.86       1.0  T
  10    -12.3675918 -0.271732E-04  0.477E-02    0.86       1.0  T
  11    -12.3676083 -0.165739E-04  0.102E-02    0.86       3.0  T
  12    -12.3676082  0.128923E-06  0.919E-03    0.86       3.3  T
  13    -12.3676082 -0.119820E-07  0.562E-03    0.86       5.4  T
  14    -12.3676085 -0.287130E-06  0.176E-03    0.86      17.1  T
  15    -12.3676085 -0.270772E-07  0.620E-04    0.86      48.6  T
  16    -12.3676085 -0.368047E-08  0.810E-05    0.86     372.1  T
     SCC iter.                  ...        0 min,  0.002 sec
     gradient                   ...        0 min,  0.001 sec
 * total energy  :   -12.0461398 Eh     change       -0.2144138E-01 Eh
   gradient norm :     0.1130969 Eh/α   predicted    -0.3515017E-01 (  63.94%)
   displ. norm   :     0.7057007 α      lambda       -0.4606375E-01
   maximum displ.:     0.3185143 α      in ANC's #18, #11, #13, ...

........................................................................
.............................. CYCLE   10 ..............................
........................................................................
   1    -12.3702194 -0.123702E+02  0.180E+00    0.87       0.0  T
   2    -12.3687798  0.143959E-02  0.130E+00    0.85       1.0  T
   3    -12.3585382  0.102416E-01  0.130E+00    0.83       1.0  T
   4    -12.3582491  0.289069E-03  0.106E+00    0.82       1.0  T
   5    -12.3666661 -0.841694E-02  0.104E+00    0.93       1.0  T
   6    -12.3737699 -0.710380E-02  0.334E-01    0.85       1.0  T
   7    -12.3737222  0.476195E-04  0.323E-01    0.86       1.0  T
   8    -12.3743001 -0.577818E-03  0.135E-01    0.86       1.0  T
   9    -12.3745821 -0.282039E-03  0.365E-02    0.85       1.0  T
  10    -12.3745801  0.200584E-05  0.303E-02    0.86       1.0  T
  11    -12.3745871 -0.703061E-05  0.133E-02    0.86       2.3  T
  12    -12.3745891 -0.194760E-05  0.175E-03    0.86      17.2  T
  13    -12.3745891 -0.885071E-08  0.791E-04    0.86      38.1  T
  14    -12.3745891 -0.442864E-09  0.386E-04    0.86      78.1  T
     SCC iter.                  ...        0 min,  0.003 sec
     gradient                   ...        0 min,  0.000 sec
 * total energy  :   -12.0347685 Eh     change        0.1137125E-01 Eh
   gradient norm :     0.3398014 Eh/α   predicted    -0.3450209E-01 (-403.42%)
   displ. norm   :     0.3472903 α      lambda       -0.6850541E-01
   maximum displ.:     0.1908892 α      in ANC's #13, #14, #9, ...

........................................................................
.............................. CYCLE   11 ..............................
........................................................................
   1    -12.3876324 -0.123876E+02  0.117E+00    0.84       0.0  T
   2    -12.3751158  0.125165E-01  0.140E+00    0.83       1.0  T
   3    -12.3803605 -0.524469E-02  0.118E+00    0.98       1.0  T
   4    -12.3842801 -0.391959E-02  0.935E-01    0.81       1.0  T
   5    -12.3912631 -0.698296E-02  0.192E-01    0.88       1.0  T
   6    -12.3914843 -0.221255E-03  0.173E-01    0.87       1.0  T
   7    -12.3916025 -0.118188E-03  0.123E-01    0.87       1.0  T
   8    -12.3916775 -0.750279E-04  0.286E-02    0.88       1.1  T
   9    -12.3916818 -0.431025E-05  0.208E-02    0.87       1.4  T
  10    -12.3916801  0.172755E-05  0.231E-02    0.87       1.3  T
  11    -12.3916839 -0.374456E-05  0.880E-03    0.88       3.4  T
  12    -12.3916844 -0.556058E-06  0.331E-03    0.88       9.1  T
  13    -12.3916845 -0.940852E-07  0.113E-03    0.87      26.8  T
  14    -12.3916845 -0.615690E-08  0.140E-04    0.87     215.8  T
  15    -12.3916845 -0.123439E-10  0.487E-05    0.87     619.6  T
     SCC iter.                  ...        0 min,  0.003 sec
     gradient                   ...        0 min,  0.000 sec
 * total energy  :   -12.0647070 Eh     change       -0.2993842E-01 Eh
   gradient norm :     0.1008546 Eh/α   predicted    -0.3838394E-01 (  28.21%)
   displ. norm   :     0.7224103 α      lambda       -0.4980832E-01
   maximum displ.:     0.3273686 α      in ANC's #18, #10, #8, ...

........................................................................
.............................. CYCLE   12 ..............................
........................................................................
   1    -12.3354731 -0.123355E+02  0.228E+00    0.84       0.0  T
   2    -12.2229057  0.112567E+00  0.334E+00    1.02       1.0  T
   3    -12.3017956 -0.788898E-01  0.247E+00    0.79       1.0  T
   4    -12.3351391 -0.333435E-01  0.997E-01    0.87       1.0  T
   5    -12.3471786 -0.120395E-01  0.285E-01    0.88       1.0  T
   6    -12.3472196 -0.410220E-04  0.217E-01    0.88       1.0  T
   7    -12.3470301  0.189459E-03  0.226E-01    0.88       1.0  T
   8    -12.3470942 -0.640996E-04  0.146E-01    0.88       1.0  T
   9    -12.3473048 -0.210548E-03  0.776E-02    0.88       1.0  T
  10    -12.3473361 -0.313339E-04  0.337E-02    0.88       1.0  T
  11    -12.3473456 -0.945174E-05  0.842E-03    0.88       3.6  T
  12    -12.3473458 -0.227909E-06  0.359E-03    0.88       8.4  T
  13    -12.3473458 -0.422407E-07  0.181E-03    0.88      16.6  T
  14    -12.3473459 -0.990012E-08  0.802E-04    0.88      37.6  T
  15    -12.3473459 -0.483254E-08  0.309E-04    0.88      97.7  T
     SCC iter.                  ...        0 min,  0.002 sec
     gradient                   ...        0 min,  0.001 sec
 * total energy  :   -12.0372826 Eh     change        0.2742433E-01 Eh
   gradient norm :     0.3177372 Eh/α   predicted    -0.3790111E-01 (-238.20%)
   displ. norm   :     0.3623697 α      lambda       -0.7982057E-01
   maximum displ.:     0.1874571 α      in ANC's #11, #14, #10, ...

........................................................................
.............................. CYCLE   13 ..............................
........................................................................
   1    -12.4049876 -0.124050E+02  0.101E+00    0.99       0.0  T
   2    -12.3955780  0.940959E-02  0.124E+00    0.93       1.0  T
   3    -12.3991606 -0.358258E-02  0.918E-01    1.02       1.0  T
   4    -12.3997043 -0.543721E-03  0.837E-01    0.96       1.0  T
   5    -12.4065372 -0.683289E-02  0.279E-01    0.98       1.0  T
   6    -12.4070769 -0.539730E-03  0.165E-01    0.99       1.0  T
   7    -12.4071161 -0.392079E-04  0.139E-01    0.99       1.0  T
   8    -12.4072523 -0.136233E-03  0.316E-02    1.00       1.0  T
   9    -12.4072629 -0.106140E-04  0.173E-02    1.00       1.7  T
  10    -12.4072642 -0.123845E-05  0.938E-03    1.00       3.2  T
  11    -12.4072642 -0.503630E-07  0.676E-03    1.00       4.5  T
  12    -12.4072646 -0.359836E-06  0.152E-03    1.00      19.8  T
  13    -12.4072646 -0.365169E-08  0.995E-04    1.00      30.3  T
  14    -12.4072646 -0.771964E-08  0.153E-04    1.00     196.7  T
     SCC iter.                  ...        0 min,  0.003 sec
     gradient                   ...        0 min,  0.001 sec
 * total energy  :   -12.0733971 Eh     change       -0.3611442E-01 Eh
   gradient norm :     0.0970802 Eh/α   predicted    -0.4515095E-01 (  25.02%)
   displ. norm   :     0.5781099 α      lambda       -0.2976491E-01
   maximum displ.:     0.3269130 α      in ANC's #6, #18, #7, ...

........................................................................
.............................. CYCLE   14 ..............................
........................................................................
   1    -12.4252897 -0.124253E+02  0.222E+00    0.91       0.0  T
   2    -12.3846815  0.406082E-01  0.207E+00    0.76       1.0  T
   3    -12.3090724  0.756091E-01  0.317E+00    1.12       1.0  T
   4    -12.4218415 -0.112769E+00  0.739E-01    0.87       1.0  T
   5    -12.4267158 -0.487438E-02  0.509E-01    0.92       1.0  T
   6    -12.4265900  0.125806E-03  0.449E-01    0.91       1.0  T
   7    -12.4268235 -0.233440E-03  0.288E-01    0.88       1.0  T
   8    -12.4277861 -0.962606E-03  0.142E-01    0.87       1.0  T
   9    -12.4278725 -0.864346E-04  0.804E-02    0.88       1.0  T
  10    -12.4279015 -0.289731E-04  0.302E-02    0.89       1.0  T
  11    -12.4279088 -0.732246E-05  0.178E-02    0.89       1.7  T
  12    -12.4279109 -0.209704E-05  0.988E-03    0.89       3.1  T
  13    -12.4279116 -0.651874E-06  0.196E-03    0.89      15.4  T
  14    -12.4279116 -0.280229E-07  0.677E-04    0.89      44.5  T
  15    -12.4279116 -0.648058E-09  0.583E-04    0.89      51.7  T
     SCC iter.                  ...        0 min,  0.003 sec
     gradient                   ...        0 min,  0.000 sec
 * total energy  :   -12.0818247 Eh     change       -0.8427686E-02 Eh
   gradient norm :     0.0713870 Eh/α   predicted    -0.1985630E-01 ( 135.61%)
   displ. norm   :     0.4796122 α      lambda       -0.1767764E-01
   maximum displ.:     0.1937679 α      in ANC's #6, #11, #4, ...

........................................................................
.............................. CYCLE   15 ..............................
........................................................................
   1    -12.3931947 -0.123932E+02  0.144E+00    0.93       0.0  T
   2    -12.3776860  0.155087E-01  0.137E+00    1.02       1.0  T
   3    -12.3362654  0.414206E-01  0.233E+00    0.77       1.0  T
   4    -12.3883025 -0.520371E-01  0.657E-01    0.94       1.0  T
   5    -12.3942679 -0.596541E-02  0.171E-01    0.93       1.0  T
   6    -12.3944748 -0.206934E-03  0.972E-02    0.93       1.0  T
   7    -12.3944575  0.173625E-04  0.895E-02    0.94       1.0  T
   8    -12.3944786 -0.211558E-04  0.235E-02    0.93       1.3  T
   9    -12.3944814 -0.282713E-05  0.132E-02    0.94       2.3  T
  10    -12.3944826 -0.112001E-05  0.811E-03    0.94       3.7  T
  11    -12.3944827 -0.153819E-06  0.452E-03    0.94       6.7  T
  12    -12.3944829 -0.177685E-06  0.135E-03    0.94      22.3  T
  13    -12.3944829 -0.108399E-07  0.385E-04    0.94      78.3  T
  14    -12.3944829 -0.796987E-09  0.146E-04    0.94     207.1  T
     SCC iter.                  ...        0 min,  0.002 sec
     gradient                   ...        0 min,  0.000 sec
 * total energy  :   -12.0895385 Eh     change       -0.7713736E-02 Eh
   gradient norm :     0.0526238 Eh/α   predicted    -0.1087199E-01 (  40.94%)
   displ. norm   :     0.5761428 α      lambda       -0.1714981E-01
   maximum displ.:     0.3180983 α      in ANC's #2, #17, #7, ...

........................................................................
.............................. CYCLE   16 ..............................
........................................................................
   1    -12.4733715 -0.124734E+02  0.205E+00    0.95       0.0  T
   2    -12.4551038  0.182678E-01  0.162E+00    0.99       1.0  T
   3    -12.3133508  0.141753E+00  0.372E+00    0.78       1.0  T
   4    -12.4619641 -0.148613E+00  0.114E+00    0.94       1.0  T
   5    -12.4751142 -0.131501E-01  0.440E-01    0.94       1.0  T
   6    -12.4765072 -0.139302E-02  0.218E-01    0.95       1.0  T
   7    -12.4764473  0.599612E-04  0.202E-01    0.95       1.0  T
   8    -12.4766831 -0.235805E-03  0.644E-02    0.95       1.0  T
   9    -12.4767301 -0.470575E-04  0.157E-02    0.95       1.9  T
  10    -12.4767322 -0.201895E-05  0.550E-03    0.95       5.5  T
  11    -12.4767322 -0.925906E-07  0.324E-03    0.95       9.3  T
  12    -12.4767323 -0.436099E-07  0.187E-03    0.95      16.2  T
  13    -12.4767323 -0.325292E-08  0.796E-04    0.95      37.9  T
  14    -12.4767323 -0.392665E-08  0.289E-04    0.95     104.3  T
     SCC iter.                  ...        0 min,  0.002 sec
     gradient                   ...        0 min,  0.000 sec
 * total energy  :   -12.0877416 Eh     change        0.1796845E-02 Eh
   gradient norm :     0.1373873 Eh/α   predicted    -0.1142125E-01 (-735.63%)
   displ. norm   :     0.3710843 α      lambda       -0.2212810E-01
   maximum displ.:     0.1653921 α      in ANC's #6, #10, #11, ...

........................................................................
.............................. CYCLE   17 ..............................
........................................................................
   1    -12.4276454 -0.124276E+02  0.121E+00    0.88       0.0  T
   2    -12.4239024  0.374306E-02  0.108E+00    0.99       1.0  T
   3    -12.4158503  0.805210E-02  0.105E+00    0.83       1.0  T
   4    -12.3996895  0.161608E-01  0.137E+00    0.96       1.0  T
   5    -12.4282644 -0.285749E-01  0.269E-01    0.90       1.0  T
   6    -12.4287303 -0.465882E-03  0.181E-01    0.91       1.0  T
   7    -12.4288350 -0.104669E-03  0.144E-01    0.91       1.0  T
   8    -12.4289780 -0.143037E-03  0.626E-02    0.90       1.0  T
   9    -12.4290197 -0.417329E-04  0.201E-02    0.90       1.5  T
  10    -12.4290199 -0.204533E-06  0.123E-02    0.91       2.5  T
  11    -12.4290211 -0.114573E-05  0.276E-03    0.91      10.9  T
  12    -12.4290211 -0.259297E-08  0.140E-03    0.91      21.5  T
  13    -12.4290211 -0.708074E-08  0.653E-04    0.91      46.2  T
  14    -12.4290211 -0.284083E-08  0.357E-04    0.91      84.5  T
     SCC iter.                  ...        0 min,  0.003 sec
     gradient                   ...        0 min,  0.000 sec
 * total energy  :   -12.0964872 Eh     change       -0.8745588E-02 Eh
   gradient norm :     0.0799007 Eh/α   predicted    -0.1258761E-01 (  43.93%)
   displ. norm   :     0.5812118 α      lambda       -0.1974478E-01
   maximum displ.:     0.3975501 α      in ANC's #2, #6, #8, ...

........................................................................
.............................. CYCLE   18 ..............................
........................................................................
   1    -12.4273950 -0.124274E+02  0.185E+00    0.92       0.0  T
   2    -12.3588587  0.685362E-01  0.225E+00    0.76       1.0  T
   3    -12.3565551  0.230365E-02  0.239E+00    1.16       1.0  T
   4    -12.4253778 -0.688227E-01  0.750E-01    0.83       1.0  T
   5    -12.4312571 -0.587931E-02  0.338E-01    0.91       1.0  T
   6    -12.4309391  0.317998E-03  0.318E-01    0.92       1.0  T
   7    -12.4309720 -0.328821E-04  0.222E-01    0.90       1.0  T
   8    -12.4315195 -0.547505E-03  0.384E-02    0.89       1.0  T
   9    -12.4315019  0.176062E-04  0.467E-02    0.89       1.0  T
  10    -12.4315206 -0.187533E-04  0.267E-02    0.89       1.1  T
  11    -12.4315247 -0.403735E-05  0.683E-03    0.89       4.4  T
  12    -12.4315246  0.926811E-07  0.672E-03    0.89       4.5  T
  13    -12.4315247 -0.963508E-07  0.156E-03    0.89      19.3  T
  14    -12.4315247 -0.179401E-07  0.714E-04    0.89      42.2  T
  15    -12.4315247 -0.707121E-08  0.263E-04    0.89     114.6  T
     SCC iter.                  ...        0 min,  0.003 sec
     gradient                   ...        0 min,  0.000 sec
 * total energy  :   -12.0874387 Eh     change        0.9048471E-02 Eh
   gradient norm :     0.1270196 Eh/α   predicted    -0.1320737E-01 (-245.96%)
   displ. norm   :     0.3391974 α      lambda       -0.2352902E-01
   maximum displ.:     0.1787446 α      in ANC's #2, #11, #17, ...

........................................................................
.............................. CYCLE   19 ..............................
........................................................................
   1    -12.4219967 -0.124220E+02  0.123E+00    0.98       0.0  T
   2    -12.3990619  0.229348E-01  0.146E+00    1.09       1.0  T
   3    -12.4020052 -0.294326E-02  0.142E+00    0.87       1.0  T
   4    -12.4202256 -0.182205E-01  0.510E-01    0.99       1.0  T
   5    -12.4236600 -0.343443E-02  0.142E-01    0.98       1.0  T
   6    -12.4238684 -0.208323E-03  0.916E-02    0.99       1.0  T
   7    -12.4239035 -0.351131E-04  0.698E-02    0.99       1.0  T
   8    -12.4239081 -0.458537E-05  0.288E-02    0.99       1.0  T
   9    -12.4239217 -0.136632E-04  0.129E-02    0.99       2.3  T
  10    -12.4239227 -0.950841E-06  0.715E-03    0.99       4.2  T
  11    -12.4239227 -0.475128E-07  0.290E-03    0.99      10.4  T
  12    -12.4239228 -0.747075E-07  0.927E-04    0.99      32.5  T
  13    -12.4239228 -0.958121E-09  0.329E-04    0.99      91.7  T
     SCC iter.                  ...        0 min,  0.002 sec
     gradient                   ...        0 min,  0.001 sec
 * total energy  :   -12.0989969 Eh     change       -0.1155818E-01 Eh
   gradient norm :     0.0480642 Eh/α   predicted    -0.1311807E-01 (  13.50%)
   displ. norm   :     0.6063963 α      lambda       -0.1809653E-01
   maximum displ.:     0.4837926 α      in ANC's #2, #5, #11, ...

........................................................................
.............................. CYCLE   20 ..............................
........................................................................
   1    -12.4547358 -0.124547E+02  0.152E+00    0.78       0.0  T
   2    -12.4451112  0.962462E-02  0.124E+00    0.77       1.0  T
   3    -12.3743191  0.707921E-01  0.250E+00    0.65       1.0  T
   4    -12.4509920 -0.766729E-01  0.640E-01    0.82       1.0  T
   5    -12.4560084 -0.501636E-02  0.158E-01    0.75       1.0  T
   6    -12.4562617 -0.253380E-03  0.104E-01    0.76       1.0  T
   7    -12.4562292  0.325581E-04  0.852E-02    0.76       1.0  T
   8    -12.4562779 -0.487121E-04  0.219E-02    0.76       1.4  T
   9    -12.4562808 -0.290251E-05  0.138E-02    0.76       2.2  T
  10    -12.4562823 -0.146724E-05  0.727E-03    0.76       4.1  T
  11    -12.4562823 -0.107990E-07  0.337E-03    0.76       8.9  T
  12    -12.4562823 -0.291464E-07  0.232E-03    0.76      13.0  T
  13    -12.4562823  0.954367E-09  0.143E-03    0.76      21.0  T
  14    -12.4562823 -0.240468E-07  0.272E-04    0.76     111.0  T
  15    -12.4562823  0.677893E-10  0.196E-04    0.76     153.5  T
     SCC iter.                  ...        0 min,  0.002 sec
     gradient                   ...        0 min,  0.000 sec
 * total energy  :   -12.0856548 Eh     change        0.1334211E-01 Eh
   gradient norm :     0.1508773 Eh/α   predicted    -0.1237547E-01 (-192.75%)
   displ. norm   :     0.3613950 α      lambda       -0.4061515E-01
   maximum displ.:     0.2504707 α      in ANC's #2, #11, #6, ...
 * RMSD in coord.:     2.1130835 α      energy gain  -0.7481521E+00 Eh

generating ANC from model Hessian ...
Using Lindh-Hessian (1995)
 Shifting diagonal of input Hessian by    1.0481160809178894E-002
 Lowest  eigenvalues of input Hessian
    0.010000    0.010102    0.010315    0.010334    0.010372    0.000000
    0.000000    0.000000    0.000000    0.000000    0.000000    0.010655
    0.010948    0.011126    0.011342    0.011693    0.012082    0.012576
 Highest eigenvalues
    0.593174    0.643858    0.803790    0.863384    1.984930    2.686133


........................................................................
.............................. CYCLE   21 ..............................
........................................................................
   1    -12.4425323 -0.124425E+02  0.930E-01    0.87       0.0  T
   2    -12.4339772  0.855506E-02  0.839E-01    0.84       1.0  T
   3    -12.4133923  0.205850E-01  0.152E+00    1.00       1.0  T
   4    -12.4402210 -0.268288E-01  0.438E-01    0.84       1.0  T
   5    -12.4431237 -0.290265E-02  0.144E-01    0.88       1.0  T
   6    -12.4432148 -0.911223E-04  0.102E-01    0.88       1.0  T
   7    -12.4431883  0.265127E-04  0.902E-02    0.88       1.0  T
   8    -12.4432532 -0.649084E-04  0.240E-02    0.88       1.3  T
   9    -12.4432523  0.932559E-06  0.215E-02    0.88       1.4  T
  10    -12.4432535 -0.127099E-05  0.134E-02    0.88       2.3  T
  11    -12.4432547 -0.116181E-05  0.306E-03    0.88       9.8  T
  12    -12.4432547  0.283777E-07  0.178E-03    0.88      17.0  T
  13    -12.4432547 -0.346196E-07  0.671E-04    0.88      44.9  T
  14    -12.4432547 -0.396091E-08  0.127E-04    0.88     236.7  T
     SCC iter.                  ...        0 min,  0.003 sec
     gradient                   ...        0 min,  0.000 sec
 * total energy  :   -12.1034647 Eh     change       -0.1780984E-01 Eh
   gradient norm :     0.0292221 Eh/α   predicted     0.0000000E+00 (-100.00%)
   displ. norm   :     0.4385190 α      lambda       -0.4486069E-02
   maximum displ.:     0.2530259 α      in ANC's #11, #9, #12, ...

........................................................................
.............................. CYCLE   22 ..............................
........................................................................
   1    -12.4433034 -0.124433E+02  0.109E+00    0.89       0.0  T
   2    -12.4429010  0.402403E-03  0.773E-01    0.92       1.0  T
   3    -12.4072725  0.356285E-01  0.163E+00    0.73       1.0  T
   4    -12.4404277 -0.331552E-01  0.451E-01    0.91       1.0  T
   5    -12.4433434 -0.291569E-02  0.118E-01    0.90       1.0  T
   6    -12.4433579 -0.144942E-04  0.906E-02    0.90       1.0  T
   7    -12.4433432  0.147221E-04  0.738E-02    0.90       1.0  T
   8    -12.4434025 -0.592797E-04  0.165E-02    0.89       1.8  T
   9    -12.4434009  0.161700E-05  0.167E-02    0.89       1.8  T
  10    -12.4434035 -0.261668E-05  0.454E-03    0.89       6.6  T
  11    -12.4434035 -0.807658E-08  0.317E-03    0.89       9.5  T
  12    -12.4434035 -0.496480E-07  0.671E-04    0.89      44.9  T
  13    -12.4434035 -0.950378E-09  0.459E-04    0.89      65.6  T
     SCC iter.                  ...        0 min,  0.004 sec
     gradient                   ...        0 min,  0.001 sec
 * total energy  :   -12.1061532 Eh     change       -0.2688512E-02 Eh
   gradient norm :     0.0219361 Eh/α   predicted    -0.2674357E-02 (  -0.53%)
   displ. norm   :     0.5212382 α      lambda       -0.4282334E-02
   maximum displ.:     0.2362950 α      in ANC's #14, #13, #11, ...

........................................................................
.............................. CYCLE   23 ..............................
........................................................................
   1    -12.4483800 -0.124484E+02  0.171E+00    0.91       0.0  T
   2    -12.4477884  0.591632E-03  0.117E+00    0.92       1.0  T
   3    -12.3503609  0.974275E-01  0.260E+00    0.74       1.0  T
   4    -12.4474638 -0.971028E-01  0.373E-01    0.92       1.0  T
   5    -12.4484143 -0.950497E-03  0.167E-01    0.90       1.0  T
   6    -12.4484471 -0.328562E-04  0.128E-01    0.91       1.0  T
   7    -12.4485236 -0.764742E-04  0.594E-02    0.91       1.0  T
   8    -12.4485556 -0.320145E-04  0.269E-02    0.90       1.1  T
   9    -12.4485602 -0.461335E-05  0.145E-02    0.90       2.1  T
  10    -12.4485599  0.320869E-06  0.768E-03    0.91       3.9  T
  11    -12.4485607 -0.793995E-06  0.402E-03    0.91       7.5  T
  12    -12.4485608 -0.522124E-07  0.105E-03    0.91      28.6  T
  13    -12.4485607  0.509688E-08  0.892E-04    0.91      33.8  T
  14    -12.4485608 -0.648548E-08  0.336E-04    0.91      89.9  T
     SCC iter.                  ...        0 min,  0.003 sec
     gradient                   ...        0 min,  0.001 sec
 * total energy  :   -12.1079486 Eh     change       -0.1795451E-02 Eh
   gradient norm :     0.0315163 Eh/α   predicted    -0.2722904E-02 (  51.66%)
   displ. norm   :     0.3699133 α      lambda       -0.2878562E-02
   maximum displ.:     0.1775647 α      in ANC's #12, #10, #6, ...

........................................................................
.............................. CYCLE   24 ..............................
........................................................................
   1    -12.4499997 -0.124500E+02  0.936E-01    0.91       0.0  T
   2    -12.4496694  0.330314E-03  0.663E-01    0.94       1.0  T
   3    -12.4280085  0.216608E-01  0.136E+00    0.79       1.0  T
   4    -12.4472189 -0.192104E-01  0.445E-01    0.94       1.0  T
   5    -12.4500848 -0.286589E-02  0.868E-02    0.91       1.0  T
   6    -12.4500379  0.469695E-04  0.780E-02    0.92       1.0  T
   7    -12.4500802 -0.423154E-04  0.354E-02    0.92       1.0  T
   8    -12.4500942 -0.140087E-04  0.136E-02    0.91       2.2  T
   9    -12.4500945 -0.361883E-06  0.359E-03    0.91       8.4  T
  10    -12.4500945  0.226301E-08  0.223E-03    0.91      13.5  T
  11    -12.4500945  0.102842E-08  0.181E-03    0.91      16.7  T
  12    -12.4500946 -0.186703E-07  0.514E-04    0.91      58.6  T
  13    -12.4500946  0.341034E-09  0.430E-04    0.91      70.1  T
     SCC iter.                  ...        0 min,  0.003 sec
     gradient                   ...        0 min,  0.002 sec
 * total energy  :   -12.1099465 Eh     change       -0.1997852E-02 Eh
   gradient norm :     0.0191032 Eh/α   predicted    -0.1636223E-02 ( -18.10%)
   displ. norm   :     0.5063090 α      lambda       -0.3046490E-02
   maximum displ.:     0.2827183 α      in ANC's #11, #10, #9, ...

........................................................................
.............................. CYCLE   25 ..............................
........................................................................
   1    -12.4393115 -0.124393E+02  0.986E-01    0.87       0.0  T
   2    -12.4382315  0.108001E-02  0.708E-01    0.90       1.0  T
   3    -12.3854897  0.527417E-01  0.196E+00    0.71       1.0  T
   4    -12.4392855 -0.537957E-01  0.132E-01    0.87       1.0  T
   5    -12.4393939 -0.108399E-03  0.828E-02    0.87       1.0  T
   6    -12.4393596  0.343242E-04  0.863E-02    0.87       1.0  T
   7    -12.4393916 -0.320165E-04  0.463E-02    0.86       1.0  T
   8    -12.4394152 -0.235956E-04  0.152E-02    0.86       2.0  T
   9    -12.4394166 -0.138132E-05  0.717E-03    0.86       4.2  T
  10    -12.4394169 -0.326391E-06  0.435E-03    0.86       6.9  T
  11    -12.4394170 -0.755778E-07  0.226E-03    0.86      13.3  T
  12    -12.4394170 -0.656858E-08  0.620E-04    0.86      48.6  T
  13    -12.4394170  0.684235E-10  0.346E-04    0.86      87.0  T
     SCC iter.                  ...        0 min,  0.003 sec
     gradient                   ...        0 min,  0.001 sec
 * total energy  :   -12.1115336 Eh     change       -0.1587115E-02 Eh
   gradient norm :     0.0317672 Eh/α   predicted    -0.1913730E-02 (  20.58%)
   displ. norm   :     0.3266160 α      lambda       -0.1849023E-02
   maximum displ.:     0.1445652 α      in ANC's #6, #11, #13, ...

........................................................................
.............................. CYCLE   26 ..............................
........................................................................
   1    -12.4467016 -0.124467E+02  0.543E-01    0.85       0.0  T
   2    -12.4465211  0.180428E-03  0.350E-01    0.81       1.0  T
   3    -12.4451151  0.140601E-02  0.411E-01    0.85       1.0  T
   4    -12.4445540  0.561113E-03  0.436E-01    0.89       1.0  T
   5    -12.4468170 -0.226300E-02  0.602E-02    0.84       1.0  T
   6    -12.4468376 -0.206060E-04  0.457E-02    0.84       1.0  T
   7    -12.4468522 -0.146196E-04  0.111E-02    0.83       2.7  T
   8    -12.4468525 -0.268516E-06  0.922E-03    0.83       3.3  T
   9    -12.4468531 -0.556838E-06  0.623E-03    0.83       4.8  T
  10    -12.4468533 -0.213777E-06  0.123E-03    0.83      24.4  T
  11    -12.4468533 -0.324552E-08  0.641E-04    0.83      47.1  T
  12    -12.4468533  0.331788E-10  0.345E-04    0.83      87.3  T
     SCC iter.                  ...        0 min,  0.003 sec
     gradient                   ...        0 min,  0.001 sec
 * total energy  :   -12.1127406 Eh     change       -0.1207045E-02 Eh
   gradient norm :     0.0256163 Eh/α   predicted    -0.1023138E-02 ( -15.24%)
   displ. norm   :     0.4603290 α      lambda       -0.2192182E-02
   maximum displ.:     0.2914106 α      in ANC's #10, #11, #13, ...

........................................................................
.............................. CYCLE   27 ..............................
........................................................................
   1    -12.4599376 -0.124599E+02  0.985E-01    0.82       0.0  T
   2    -12.4591418  0.795766E-03  0.667E-01    0.78       1.0  T
   3    -12.4267199  0.324219E-01  0.146E+00    0.74       1.0  T
   4    -12.4579057 -0.311858E-01  0.559E-01    0.88       1.0  T
   5    -12.4601551 -0.224945E-02  0.978E-02    0.80       1.0  T
   6    -12.4601599 -0.472824E-05  0.873E-02    0.80       1.0  T
   7    -12.4602116 -0.516978E-04  0.465E-02    0.80       1.0  T
   8    -12.4602190 -0.747124E-05  0.155E-02    0.79       1.9  T
   9    -12.4602202 -0.119271E-05  0.104E-02    0.79       2.9  T
  10    -12.4602208 -0.536495E-06  0.511E-03    0.79       5.9  T
  11    -12.4602208 -0.637659E-07  0.271E-03    0.79      11.1  T
  12    -12.4602208 -0.149760E-07  0.699E-04    0.79      43.1  T
  13    -12.4602208 -0.168495E-08  0.308E-04    0.79      98.0  T
     SCC iter.                  ...        0 min,  0.003 sec
     gradient                   ...        0 min,  0.001 sec
 * total energy  :   -12.1137746 Eh     change       -0.1033936E-02 Eh
   gradient norm :     0.0233910 Eh/α   predicted    -0.1328361E-02 (  28.48%)
   displ. norm   :     0.4557805 α      lambda       -0.1774800E-02
   maximum displ.:     0.2591335 α      in ANC's #11, #9, #10, ...

........................................................................
.............................. CYCLE   28 ..............................
........................................................................
   1    -12.4539777 -0.124540E+02  0.119E+00    0.80       0.0  T
   2    -12.4525677  0.141006E-02  0.847E-01    0.80       1.0  T
   3    -12.3745096  0.780581E-01  0.239E+00    0.64       1.0  T
   4    -12.4527113 -0.782017E-01  0.400E-01    0.82       1.0  T
   5    -12.4541411 -0.142982E-02  0.977E-02    0.78       1.0  T
   6    -12.4541140  0.271491E-04  0.101E-01    0.79       1.0  T
   7    -12.4541654 -0.514010E-04  0.529E-02    0.79       1.0  T
   8    -12.4541776 -0.122239E-04  0.254E-02    0.78       1.2  T
   9    -12.4541806 -0.304335E-05  0.185E-02    0.78       1.6  T
  10    -12.4541823 -0.170734E-05  0.479E-03    0.78       6.3  T
  11    -12.4541824 -0.423714E-07  0.391E-03    0.78       7.7  T
  12    -12.4541824 -0.245629E-07  0.879E-04    0.78      34.3  T
  13    -12.4541824  0.184111E-08  0.521E-04    0.78      57.9  T
     SCC iter.                  ...        0 min,  0.003 sec
     gradient                   ...        0 min,  0.001 sec
 * total energy  :   -12.1144103 Eh     change       -0.6357022E-03 Eh
   gradient norm :     0.0310528 Eh/α   predicted    -0.1071755E-02 (  68.59%)
   displ. norm   :     0.2405260 α      lambda       -0.1323552E-02
   maximum displ.:     0.1645223 α      in ANC's #6, #10, #8, ...

........................................................................
.............................. CYCLE   29 ..............................
........................................................................
   1    -12.4608546 -0.124609E+02  0.500E-01    0.78       0.0  T
   2    -12.4606576  0.197035E-03  0.338E-01    0.75       1.0  T
   3    -12.4542928  0.636479E-02  0.670E-01    0.74       1.0  T
   4    -12.4599173 -0.562445E-02  0.335E-01    0.81       1.0  T
   5    -12.4609119 -0.994598E-03  0.626E-02    0.77       1.0  T
   6    -12.4608954  0.164304E-04  0.644E-02    0.76       1.0  T
   7    -12.4609325 -0.370806E-04  0.208E-02    0.76       1.4  T
   8    -12.4609362 -0.370090E-05  0.727E-03    0.76       4.1  T
   9    -12.4609365 -0.251124E-06  0.351E-03    0.76       8.6  T
  10    -12.4609365 -0.607073E-08  0.167E-03    0.76      18.1  T
  11    -12.4609365 -0.158205E-07  0.105E-03    0.76      28.7  T
  12    -12.4609365 -0.468351E-08  0.291E-04    0.76     103.6  T
  13    -12.4609365 -0.480089E-09  0.182E-04    0.76     165.8  T
     SCC iter.                  ...        0 min,  0.003 sec
     gradient                   ...        0 min,  0.001 sec
 * total energy  :   -12.1151343 Eh     change       -0.7240276E-03 Eh
   gradient norm :     0.0118858 Eh/α   predicted    -0.7000653E-03 (  -3.31%)
   displ. norm   :     0.3690858 α      lambda       -0.7531143E-03
   maximum displ.:     0.1810126 α      in ANC's #10, #6, #11, ...

........................................................................
.............................. CYCLE   30 ..............................
........................................................................
   1    -12.4581881 -0.124582E+02  0.969E-01    0.72       0.0  T
   2    -12.4571257  0.106235E-02  0.754E-01    0.71       1.0  T
   3    -12.4148373  0.422885E-01  0.175E+00    0.62       1.0  T
   4    -12.4564774 -0.416402E-01  0.468E-01    0.77       1.0  T
   5    -12.4582509 -0.177348E-02  0.138E-01    0.72       1.0  T
   6    -12.4581272  0.123737E-03  0.153E-01    0.71       1.0  T
   7    -12.4583467 -0.219527E-03  0.511E-02    0.71       1.0  T
   8    -12.4583499 -0.324526E-05  0.388E-02    0.71       1.0  T
   9    -12.4583530 -0.304433E-05  0.342E-02    0.71       1.0  T
  10    -12.4583614 -0.845092E-05  0.806E-03    0.71       3.7  T
  11    -12.4583616 -0.205074E-06  0.660E-03    0.71       4.6  T
  12    -12.4583619 -0.255656E-06  0.132E-03    0.71      22.8  T
  13    -12.4583619 -0.715242E-08  0.226E-04    0.71     133.4  T
  14    -12.4583619 -0.478302E-10  0.147E-04    0.71     205.8  T
     SCC iter.                  ...        0 min,  0.003 sec
     gradient                   ...        0 min,  0.001 sec
 * total energy  :   -12.1156196 Eh     change       -0.4852527E-03 Eh
   gradient norm :     0.0160530 Eh/α   predicted    -0.4278543E-03 ( -11.83%)
   displ. norm   :     0.5336637 α      lambda       -0.1207099E-02
   maximum displ.:     0.2509750 α      in ANC's #6, #10, #11, ...

........................................................................
.............................. CYCLE   31 ..............................
........................................................................
   1    -12.4636842 -0.124637E+02  0.169E+00    0.74       0.0  T
   2    -12.4603101  0.337416E-02  0.133E+00    0.73       1.0  T
   3    -12.3288790  0.131431E+00  0.318E+00    0.60       1.0  T
   4    -12.4566485 -0.127769E+00  0.942E-01    0.82       1.0  T
   5    -12.4640140 -0.736554E-02  0.209E-01    0.73       1.0  T
   6    -12.4634341  0.579935E-03  0.286E-01    0.73       1.0  T
   7    -12.4639584 -0.524269E-03  0.178E-01    0.73       1.0  T
   8    -12.4642267 -0.268366E-03  0.449E-02    0.72       1.0  T
   9    -12.4642351 -0.835060E-05  0.265E-02    0.71       1.1  T
  10    -12.4642362 -0.112388E-05  0.114E-02    0.72       2.6  T
  11    -12.4642367 -0.459609E-06  0.118E-02    0.72       2.6  T
  12    -12.4642371 -0.440511E-06  0.212E-03    0.72      14.2  T
  13    -12.4642371  0.444349E-08  0.159E-03    0.72      18.9  T
  14    -12.4642371 -0.799769E-08  0.435E-04    0.72      69.3  T
  15    -12.4642371 -0.162024E-08  0.176E-04    0.72     171.3  T
     SCC iter.                  ...        0 min,  0.004 sec
     gradient                   ...        0 min,  0.001 sec
 * total energy  :   -12.1166827 Eh     change       -0.1063128E-02 Eh
   gradient norm :     0.0107476 Eh/α   predicted    -0.7754354E-03 ( -27.06%)
   displ. norm   :     0.8101346 α      lambda       -0.2008763E-02
   maximum displ.:     0.3672720 α      in ANC's #6, #12, #11, ...

........................................................................
.............................. CYCLE   32 ..............................
........................................................................
   1    -12.4686502 -0.124687E+02  0.276E+00    0.80       0.0  T
   2    -12.4575000  0.111502E-01  0.230E+00    0.86       1.0  T
   3    -12.1514088  0.306091E+00  0.507E+00    0.62       1.0  T
   4    -12.4556443 -0.304235E+00  0.127E+00    0.88       1.0  T
   5    -12.4686520 -0.130077E-01  0.433E-01    0.81       1.0  T
   6    -12.4679862  0.665813E-03  0.474E-01    0.82       1.0  T
   7    -12.4692065 -0.122034E-02  0.278E-01    0.81       1.0  T
   8    -12.4698336 -0.627037E-03  0.549E-02    0.79       1.0  T
   9    -12.4698337 -0.152274E-06  0.520E-02    0.79       1.0  T
  10    -12.4698258  0.789890E-05  0.309E-02    0.79       1.0  T
  11    -12.4698339 -0.808080E-05  0.169E-02    0.79       1.8  T
  12    -12.4698341 -0.195380E-06  0.581E-03    0.80       5.2  T
  13    -12.4698341 -0.526861E-07  0.262E-03    0.80      11.5  T
  14    -12.4698341 -0.813161E-08  0.595E-04    0.80      50.6  T
  15    -12.4698341  0.382023E-10  0.459E-04    0.80      65.7  T
     SCC iter.                  ...        0 min,  0.004 sec
     gradient                   ...        0 min,  0.001 sec
 * total energy  :   -12.1179668 Eh     change       -0.1284171E-02 Eh
   gradient norm :     0.0226457 Eh/α   predicted    -0.1663596E-02 (  29.55%)
   displ. norm   :     0.5544345 α      lambda       -0.1632327E-02
   maximum displ.:     0.3527183 α      in ANC's #6, #5, #12, ...

........................................................................
.............................. CYCLE   33 ..............................
........................................................................
   1    -12.4624120 -0.124624E+02  0.181E+00    0.85       0.0  T
   2    -12.4569636  0.544839E-02  0.152E+00    0.90       1.0  T
   3    -12.3395813  0.117382E+00  0.335E+00    0.70       1.0  T
   4    -12.4595965 -0.120015E+00  0.624E-01    0.89       1.0  T
   5    -12.4620561 -0.245953E-02  0.347E-01    0.87       1.0  T
   6    -12.4620192  0.368510E-04  0.331E-01    0.87       1.0  T
   7    -12.4626297 -0.610448E-03  0.176E-01    0.86       1.0  T
   8    -12.4628643 -0.234680E-03  0.260E-02    0.85       1.2  T
   9    -12.4628644 -0.249536E-07  0.174E-02    0.85       1.7  T
  10    -12.4628644  0.346563E-08  0.105E-02    0.85       2.9  T
  11    -12.4628641  0.314046E-06  0.122E-02    0.85       2.5  T
  12    -12.4628645 -0.412540E-06  0.263E-03    0.85      11.4  T
  13    -12.4628645 -0.893263E-08  0.143E-03    0.85      21.0  T
  14    -12.4628645 -0.141095E-08  0.362E-04    0.86      83.3  T
  15    -12.4628645 -0.431053E-09  0.243E-04    0.86     124.2  T
     SCC iter.                  ...        0 min,  0.003 sec
     gradient                   ...        0 min,  0.000 sec
 * total energy  :   -12.1187386 Eh     change       -0.7717817E-03 Eh
   gradient norm :     0.0282923 Eh/α   predicted    -0.1067044E-02 (  38.26%)
   displ. norm   :     0.5104739 α      lambda       -0.2414859E-02
   maximum displ.:     0.2438015 α      in ANC's #12, #14, #6, ...

........................................................................
.............................. CYCLE   34 ..............................
........................................................................
   1    -12.4875822 -0.124876E+02  0.241E+00    0.86       0.0  T
   2    -12.4870590  0.523186E-03  0.166E+00    0.86       1.0  T
   3    -12.4024668  0.845922E-01  0.267E+00    0.83       1.0  T
   4    -12.4794205 -0.769538E-01  0.989E-01    0.96       1.0  T
   5    -12.4878451 -0.842454E-02  0.237E-01    0.88       1.0  T
   6    -12.4875963  0.248803E-03  0.210E-01    0.89       1.0  T
   7    -12.4878896 -0.293344E-03  0.859E-02    0.89       1.0  T
   8    -12.4879463 -0.566301E-04  0.518E-02    0.89       1.0  T
   9    -12.4879649 -0.186279E-04  0.236E-02    0.89       1.3  T
  10    -12.4879660 -0.114016E-05  0.649E-03    0.89       4.6  T
  11    -12.4879662 -0.200118E-06  0.545E-03    0.89       5.5  T
  12    -12.4879663 -0.912769E-07  0.884E-04    0.89      34.1  T
  13    -12.4879663 -0.546125E-08  0.411E-04    0.89      73.4  T
     SCC iter.                  ...        0 min,  0.003 sec
     gradient                   ...        0 min,  0.001 sec
 * total energy  :   -12.1185088 Eh     change        0.2297928E-03 Eh
   gradient norm :     0.0770654 Eh/α   predicted    -0.1522066E-02 (-762.36%)
   displ. norm   :     0.3369039 α      lambda       -0.4319584E-02
   maximum displ.:     0.1196656 α      in ANC's #1, #2, #11, ...

........................................................................
[...]
  10    -12.4736117 -0.866921E-08  0.322E-04    0.66      93.6  T
  11    -12.4736117 -0.363254E-09  0.133E-04    0.66     226.9  T
     SCC iter.                  ...        0 min,  0.003 sec
     gradient                   ...        0 min,  0.001 sec
 * total energy  :   -12.1246813 Eh     change       -0.1247257E-04 Eh
   gradient norm :     0.0009538 Eh/α   predicted    -0.7051144E-05 ( -43.47%)
   displ. norm   :     0.1062845 α      lambda       -0.2311456E-04
   maximum displ.:     0.0579069 α      in ANC's #7, #6, #1, ...

........................................................................
.............................. CYCLE   69 ..............................
........................................................................
   1    -12.4727943 -0.124728E+02  0.253E-01    0.66       0.0  T
   2    -12.4727878  0.651751E-05  0.157E-01    0.65       1.0  T
   3    -12.4720064  0.781324E-03  0.310E-01    0.68       1.0  T
   4    -12.4727719 -0.765447E-03  0.536E-02    0.65       1.0  T
   5    -12.4727960 -0.241604E-04  0.209E-02    0.66       1.4  T
   6    -12.4727880  0.804750E-05  0.264E-02    0.66       1.1  T
   7    -12.4727962 -0.824087E-05  0.545E-03    0.66       5.5  T
   8    -12.4727963 -0.748522E-07  0.415E-03    0.66       7.3  T
   9    -12.4727964 -0.831272E-07  0.209E-03    0.66      14.4  T
  10    -12.4727964 -0.149071E-07  0.735E-04    0.66      41.0  T
  11    -12.4727964 -0.318840E-08  0.324E-04    0.66      93.1  T
     SCC iter.                  ...        0 min,  0.002 sec
     gradient                   ...        0 min,  0.001 sec
 * total energy  :   -12.1246521 Eh     change        0.2928413E-04 Eh
   gradient norm :     0.0038756 Eh/α   predicted    -0.1161507E-04 (-139.66%)
   displ. norm   :     0.0397090 α      lambda       -0.5446649E-04
   maximum displ.:     0.0226163 α      in ANC's #7, #14, #6, ...

........................................................................
.............................. CYCLE   70 ..............................
........................................................................
   1    -12.4735445 -0.124735E+02  0.978E-02    0.66       0.0  T
   2    -12.4735443  0.161520E-06  0.587E-02    0.66       1.0  T
   3    -12.4735356  0.867618E-05  0.289E-02    0.66       1.0  T
   4    -12.4735444 -0.881000E-05  0.658E-03    0.66       4.6  T
   5    -12.4735446 -0.201621E-06  0.253E-03    0.66      11.9  T
   6    -12.4735446  0.568533E-07  0.307E-03    0.66       9.8  T
   7    -12.4735447 -0.956673E-07  0.548E-04    0.66      55.0  T
   8    -12.4735447  0.162827E-08  0.630E-04    0.66      47.8  T
     SCC iter.                  ...        0 min,  0.001 sec
     gradient                   ...        0 min,  0.001 sec
 * total energy  :   -12.1246867 Eh     change       -0.3467333E-04 Eh
   gradient norm :     0.0010187 Eh/α   predicted    -0.2727707E-04 ( -21.33%)
   displ. norm   :     0.0265700 α      lambda       -0.9354953E-05
   maximum displ.:     0.0160528 α      in ANC's #14, #9, #5, ...

........................................................................
.............................. CYCLE   71 ..............................
........................................................................
   1    -12.4736003 -0.124736E+02  0.712E-02    0.66       0.0  T
   2    -12.4736000  0.236952E-06  0.439E-02    0.66       1.0  T
   3    -12.4735595  0.405645E-04  0.721E-02    0.66       1.0  T
   4    -12.4736001 -0.405956E-04  0.611E-03    0.66       4.9  T
   5    -12.4736003 -0.269554E-06  0.335E-03    0.66       9.0  T
   6    -12.4736003  0.573246E-07  0.279E-03    0.66      10.8  T
   7    -12.4736003 -0.684199E-07  0.158E-03    0.66      19.1  T
   8    -12.4736003 -0.944299E-08  0.970E-04    0.66      31.1  T
   9    -12.4736003 -0.157846E-08  0.526E-04    0.66      57.3  T
     SCC iter.                  ...        0 min,  0.002 sec
     gradient                   ...        0 min,  0.001 sec
 * total energy  :   -12.1246913 Eh     change       -0.4571938E-05 Eh
   gradient norm :     0.0006696 Eh/α   predicted    -0.4680468E-05 (   2.37%)
   displ. norm   :     0.0128016 α      lambda       -0.2147465E-05
   maximum displ.:     0.0059989 α      in ANC's #10, #9, #14, ...

   *** GEOMETRY OPTIMIZATION CONVERGED AFTER 71 ITERATIONS ***

------------------------------------------------------------------------
 total energy gain   :        -0.7871886 Eh     -493.9683 kcal/mol
 total RMSD          :         3.0873723 a0        1.6338 Å
 total power (kW/mol):       -29.1093421 (step)-6985.4198 (real)
------------------------------------------------------------------------

 ANCopt (total)                0 d,  0 h,  0 min,  0.296 sec
 optimizer setup                ...        0 min,  0.000 sec (  0.008%)
 model hessian                  ...        0 min,  0.001 sec (  0.180%)
 ANC generation                 ...        0 min,  0.000 sec (  0.136%)
 coordinate transformation      ...        0 min,  0.000 sec (  0.061%)
 single point calculation       ...        0 min,  0.288 sec ( 97.318%)
 optimization log               ...        0 min,  0.002 sec (  0.752%)
 hessian update                 ...        0 min,  0.002 sec (  0.674%)
 rational function              ...        0 min,  0.001 sec (  0.483%)

================
 final structure:
================
11
 xtb: 6.5.1 (conda-forge)
Be           1.02884825613033        1.14251689830931       -1.93992751954276
Be           2.68302770053738        1.03167138978898       -1.02539413841249
C            3.02291928056970        0.48406280389533        0.53813735085838
C            3.46204992226164        0.13223644950985        1.62484338468239
C            3.90416907157373       -0.26527558522929        2.84614252099499
C            4.29427016009914       -0.60817677039978        3.93809716881082
H            4.63159597163816       -0.92063057828911        4.88088845082861
H            4.50782692223904        1.84953974776924        4.60007998030158
H            4.61742016863484        2.51694309013004        4.99424683260294
H            3.02014589895451        0.65707808267079        6.66341271727611
H            2.79572664736379        0.16897147186246        7.22697325155482

 Bond Distances (Angstroems)
 ---------------------------
Be1-Be2=1.8934       Be2-Be1=1.8934       Be2-C3=1.6912        C3-Be2=1.6912        C3-C4=1.2237         C4-C3=1.2237         
C4-C5=1.3583         C5-C4=1.3583         C5-C6=1.2092         C6-C5=1.2092         C6-H7=1.0489         H7-C6=1.0489         
H8-H9=0.7828         H9-H8=0.7828         H10-H11=0.7786       H11-H10=0.7786       
 H  H  Rav=0.7807 sigma=0.0021  Rmin=0.7786  Rmax=0.7828     2
 Be Be Rav=1.8934 sigma=0.0000  Rmin=1.8934  Rmax=1.8934     1
 C  H  Rav=1.0489 sigma=0.0000  Rmin=1.0489  Rmax=1.0489     1
 C  Be Rav=1.6912 sigma=0.0000  Rmin=1.6912  Rmax=1.6912     1
 C  C  Rav=1.2638 sigma=0.0671  Rmin=1.2092  Rmax=1.3583     3

 selected bond angles (degree)
 --------------------
C3-Be2-Be1=129.87              C4-C3-Be2=170.48               C5-C4-C3=177.96                C6-C5-C4=179.41                
H7-C6-C5=179.14                

 selected dihedral angles (degree)
 ---------------------------------
C4-C3-Be2-Be1=179.89          C5-C4-C3-Be2=174.29           C6-C5-C4-C3=284.71            H7-C6-C5-C4=158.73            

 CMA Distance (Angstroems)
 ---------------------------
R(CMA):  4.8111
           -------------------------------------------------
          |                Final Singlepoint                |
           -------------------------------------------------

          ...................................................
          :                      SETUP                      :
          :.................................................:
          :  # basis functions                  29          :
          :  # atomic orbitals                  29          :
          :  # shells                           17          :
          :  # electrons                        25          :
          :  max. iterations                   250          :
          :  Hamiltonian                  GFN2-xTB          :
          :  restarted?                      false          :
          :  GBSA solvation                  false          :
          :  PC potential                    false          :
          :  electronic temp.          300.0000000     K    :
          :  accuracy                    1.0000000          :
          :  -> integral cutoff          0.2500000E+02      :
          :  -> integral neglect         0.1000000E-07      :
          :  -> SCF convergence          0.1000000E-05 Eh   :
          :  -> wf. convergence          0.1000000E-03 e    :
          :  Broyden damping             0.4000000          :
          ...................................................

 iter      E             dE          RMSdq      gap      omega  full diag
   1    -12.4736004 -0.124736E+02  0.967E-05    0.66       0.0  T
   2    -12.4736004  0.262423E-09  0.194E-04    0.66     155.5  T
   3    -12.4736004 -0.259870E-09  0.818E-05    0.66     368.5  T

   *** convergence criteria satisfied after 3 iterations ***

         #    Occupation            Energy/Eh            Energy/eV
      -------------------------------------------------------------
         1        2.0000           -0.5572688             -15.1641
       ...           ...                  ...                  ...
         7        2.0000           -0.3928665             -10.6904
         8        2.0000           -0.3917616             -10.6604
         9        2.0000           -0.3628682              -9.8741
        10        2.0000           -0.3271574              -8.9024
        11        2.0000           -0.3264873              -8.8842
        12        2.0000           -0.3113053              -8.4710
        13        1.0000           -0.2057546              -5.5989 (HOMO)
        14        0.0000           -0.1815841              -4.9412 (LUMO)
        15                         -0.1663127              -4.5256
        16                         -0.1435529              -3.9063
        17                         -0.1343137              -3.6549
        18                         -0.0532792              -1.4498
       ...                                ...                  ...
        29                          1.6355476              44.5055
      -------------------------------------------------------------
                  HL-Gap            0.0241705 Eh            0.6577 eV
             Fermi-level           -0.2260997 Eh           -6.1525 eV

 SCC (total)                   0 d,  0 h,  0 min,  0.002 sec
 SCC setup                      ...        0 min,  0.000 sec (  2.257%)
 Dispersion                     ...        0 min,  0.000 sec (  5.165%)
 classical contributions        ...        0 min,  0.000 sec (  1.343%)
 integral evaluation            ...        0 min,  0.000 sec ( 10.399%)
 iterations                     ...        0 min,  0.001 sec ( 41.249%)
 molecular gradient             ...        0 min,  0.001 sec ( 32.636%)
 printout                       ...        0 min,  0.000 sec (  6.217%)

         :::::::::::::::::::::::::::::::::::::::::::::::::::::
         ::                     SUMMARY                     ::
         :::::::::::::::::::::::::::::::::::::::::::::::::::::
         :: total energy             -12.124691306803 Eh    ::
         :: gradient norm              0.000668678247 Eh/a0 ::
         :: HOMO-LUMO gap              0.657712169891 eV    ::
         ::.................................................::
         :: SCC energy               -12.473600351731 Eh    ::
         :: -> isotropic ES           -0.034993849734 Eh    ::
         :: -> anisotropic ES          0.017654541503 Eh    ::
         :: -> anisotropic XC          0.013945969224 Eh    ::
         :: -> dispersion             -0.004934912912 Eh    ::
         :: repulsion energy           0.348926135280 Eh    ::
         :: add. restraining           0.000000000000 Eh    ::
         :: total charge              -0.000000000000 e     ::
         :::::::::::::::::::::::::::::::::::::::::::::::::::::

           -------------------------------------------------
          |                Property Printout                |
           -------------------------------------------------

    * Orbital Energies and Occupations

         #    Occupation            Energy/Eh            Energy/eV
      -------------------------------------------------------------
         1        2.0000           -0.5572688             -15.1641
         2        2.0000           -0.5381583             -14.6440
         3        2.0000           -0.4947600             -13.4631
         4        2.0000           -0.4543081             -12.3624
         5        2.0000           -0.4436863             -12.0733
         6        2.0000           -0.4425267             -12.0418
         7        2.0000           -0.3928665             -10.6904
         8        2.0000           -0.3917616             -10.6604
         9        2.0000           -0.3628682              -9.8741
        10        2.0000           -0.3271574              -8.9024
        11        2.0000           -0.3264873              -8.8842
        12        2.0000           -0.3113053              -8.4710
        13        1.0000           -0.2057546              -5.5989 (HOMO)
        14        0.0000           -0.1815841              -4.9412 (LUMO)
        15                         -0.1663127              -4.5256
        16                         -0.1435529              -3.9063
        17                         -0.1343137              -3.6549
        18                         -0.0532792              -1.4498
        19                         -0.0266608              -0.7255
        20                          0.0230849               0.6282
        21                          0.0525919               1.4311
        22                          0.1218459               3.3156
        23                          0.1376796               3.7465
        24                          0.1528768               4.1600
       ...                                ...                  ...
        29                          1.6355476              44.5055
      -------------------------------------------------------------
                  HL-Gap            0.0241705 Eh            0.6577 eV
             Fermi-level           -0.2260997 Eh           -6.1525 eV

     #   Z          covCN         q      C6AA      α(0)
     1   4 Be       0.976     0.189    74.827    25.927
     2   4 Be       1.817     0.329    15.603     9.150
     3   6 C        1.822    -0.315    41.006    10.346
     4   6 C        1.964    -0.056    32.584     9.218
     5   6 C        1.962    -0.033    31.942     9.127
     6   6 C        1.910    -0.131    34.798     9.527
     7   1 H        0.928     0.026     2.638     2.540
     8   1 H        0.794     0.013     2.895     2.674
     9   1 H        0.794    -0.021     3.517     2.948
    10   1 H        0.808     0.007     2.997     2.719
    11   1 H        0.808    -0.008     3.246     2.829

 Mol. C6AA /au·bohr⁶  :       1887.995510
 Mol. C8AA /au·bohr⁸  :      53986.860086
 Mol. α(0) /au        :         87.005840


Wiberg/Mayer (AO) data.
largest (>0.10) Wiberg bond orders for each atom

 ---------------------------------------------------------------------------
     #   Z sym  total        # sym  WBO       # sym  WBO       # sym  WBO
 ---------------------------------------------------------------------------
     1   4 Be   1.116 --     2 Be   1.058
     2   4 Be   1.901 --     1 Be   1.058     3 C    0.782
     3   6 C    3.686 --     4 C    2.613     2 Be   0.782     6 C    0.238
     4   6 C    3.933 --     3 C    2.613     5 C    1.233
     5   6 C    3.962 --     6 C    2.683     4 C    1.233
     6   6 C    3.919 --     5 C    2.683     7 H    0.976     3 C    0.238
     7   1 H    0.998 --     6 C    0.976
     8   1 H    1.000 --     9 H    0.989
     9   1 H    0.999 --     8 H    0.989
    10   1 H    1.000 --    11 H    0.998
    11   1 H    1.000 --    10 H    0.998
 ---------------------------------------------------------------------------

Topologies differ in total number of bonds
Writing topology from bond orders to xtbtopo.mol

molecular dipole:
                 x           y           z       tot (Debye)
 q only:       -1.282       0.821      -2.834
   full:       -0.695       0.541      -1.871       5.256
molecular quadrupole (traceless):
                xx          xy          yy          xz          yz          zz
 q only:      -11.154       4.220       9.876     -23.153      -4.118       1.278
  q+dip:       -6.439       2.564       3.181     -12.074      -5.308       3.257
   full:       -8.218       2.657       7.620     -15.826      -2.705       0.598

           -------------------------------------------------
          |                Geometry Summary                 |
           -------------------------------------------------

      molecular mass/u    :       71.1070135
   center of mass at/Å    :        3.2280755       0.2926773       1.5375352
  moments of inertia/u·Å² :        0.3788817E+02   0.4446930E+03   0.4554958E+03
rotational constants/cm⁻¹ :        0.4449313E+00   0.3790847E-01   0.3700941E-01

 * 7 selected distances

     #   Z          #   Z                                           value/Å
     1   4 Be       2   4 Be                                      1.8934013 (max)
     2   4 Be       3   6 C                                       1.6911631
     3   6 C        4   6 C                                       1.2237433
     5   6 C        6   6 C                                       1.2091837
     6   6 C        7   1 H                                       1.0489384
     8   1 H        9   1 H                                       0.7828190
    10   1 H       11   1 H                                       0.7785966 (min)

 * 5 distinct bonds (by element types)

   Z      Z             #   av. dist./Å        max./Å        min./Å
   1 H    1 H           2     0.7807078     0.7828190     0.7785966
   4 Be   4 Be          1     1.8934013     1.8934013     1.8934013
   1 H    6 C           1     1.0489384     1.0489384     1.0489384
   4 Be   6 C           1     1.6911631     1.6911631     1.6911631
   6 C    6 C           2     1.2164635     1.2237433     1.2091837


optimized geometry written to: xtbopt.xyz
Note: The following floating-point exceptions are signalling: IEEE_UNDERFLOW_FLAG
normal termination of xtb


           -------------------------------------------------
          | TOTAL ENERGY              -12.124691306803 Eh   |
          | GRADIENT NORM               0.000668678247 Eh/α |
          | HOMO-LUMO GAP               0.657712169891 eV   |
           -------------------------------------------------
########################################################################
[WARNING] Runtime exception occurred
-3- restart_readRestart: Dimension missmatch in restart file.
-2- restart_readRestart: Multiplicity missmatch in restart file.
-1- restart_readRestart: Number of electron missmatch in restart file.
########################################################################

------------------------------------------------------------------------
 * finished run on 2025/06/07 at 03:27:52.292     
------------------------------------------------------------------------
 total:
 * wall-time:     0 d,  0 h,  0 min,  0.380 sec
 *  cpu-time:     0 d,  0 h,  0 min,  5.384 sec
 * ratio c/w:    14.152 speedup
 SCF:
 * wall-time:     0 d,  0 h,  0 min,  0.079 sec
 *  cpu-time:     0 d,  0 h,  0 min,  1.145 sec
 * ratio c/w:    14.482 speedup
 ANC optimizer:
 * wall-time:     0 d,  0 h,  0 min,  0.298 sec
 *  cpu-time:     0 d,  0 h,  0 min,  4.206 sec
 * ratio c/w:    14.111 speedup

