      -----------------------------------------------------------      
     |                   =====================                   |     
     |                           x T B                           |     
     |                   =====================                   |     
     |                         S. Grimme                         |     
     |          Mulliken Center for Theoretical Chemistry        |     
     |                    University of Bonn                     |     
      -----------------------------------------------------------      

   * xtb version 6.5.1 (conda-forge) compiled by 'runner@Mac-1657629245115.local' on 2022-07-12

   xtb is free software: you can redistribute it and/or modify it under
   the terms of the GNU Lesser General Public License as published by
   the Free Software Foundation, either version 3 of the License, or
   (at your option) any later version.
   
   xtb is distributed in the hope that it will be useful,
   but WITHOUT ANY WARRANTY; without even the implied warranty of
   MERCHANTABILITY or FITNESS FOR A PARTICULAR PURPOSE.  See the
   GNU Lesser General Public License for more details.
   
   Cite this work as:
   * C. Bannwarth, E. Caldeweyher, S. Ehlert, A. Hansen, P. Pracht,
     J. Seibert, S. Spicher, S. Grimme, WIREs Comput. Mol. Sci., 2020, 11,
     e01493. DOI: 10.1002/wcms.1493
   
   for GFN2-xTB:
   * C. Bannwarth, S. Ehlert and S. Grimme., J. Chem. Theory Comput., 2019,
     15, 1652-1671. DOI: 10.1021/acs.jctc.8b01176
   for GFN1-xTB:
   * S. Grimme, C. Bannwarth, P. Shushkov, J. Chem. Theory Comput., 2017,
     13, 1989-2009. DOI: 10.1021/acs.jctc.7b00118
   for GFN0-xTB:
   * P. Pracht, E. Caldeweyher, S. Ehlert, S. Grimme, ChemRxiv, 2019, preprint.
     DOI: 10.26434/chemrxiv.8326202.v1
   for GFN-FF:
   * S. Spicher and S. Grimme, Angew. Chem. Int. Ed., 2020, 59, 15665-15673.
     DOI: 10.1002/anie.202004239
   
   for ALPB and GBSA implicit solvation:
   * S. Ehlert, M. Stahn, S. Spicher, S. Grimme, J. Chem. Theory Comput.,
     2021, 17, 4250-4261. DOI: 10.1021/acs.jctc.1c00471
   
   for DFT-D4:
   * E. Caldeweyher, C. Bannwarth and S. Grimme, J. Chem. Phys., 2017,
     147, 034112. DOI: 10.1063/1.4993215
   * E. Caldeweyher, S. Ehlert, A. Hansen, H. Neugebauer, S. Spicher,
     C. Bannwarth and S. Grimme, J. Chem. Phys., 2019, 150, 154122.
     DOI: 10.1063/1.5090222
   * E. Caldeweyher, J.-M. Mewes, S. Ehlert and S. Grimme, Phys. Chem. Chem. Phys.
     2020, 22, 8499-8512. DOI: 10.1039/D0CP00502A
   
   for sTDA-xTB:
   * S. Grimme and C. Bannwarth, J. Chem. Phys., 2016, 145, 054103.
     DOI: 10.1063/1.4959605
   
   in the mass-spec context:
   * V. Asgeirsson, C. Bauer and S. Grimme, Chem. Sci., 2017, 8, 4879.
     DOI: 10.1039/c7sc00601b
   * J. Koopman and S. Grimme, ACS Omega 2019, 4, 12, 15120-15133.
     DOI: 10.1021/acsomega.9b02011
   
   for metadynamics refer to:
   * S. Grimme, J. Chem. Theory Comput., 2019, 155, 2847-2862
     DOI: 10.1021/acs.jctc.9b00143
   
   for SPH calculations refer to:
   * S. Spicher and S. Grimme, J. Chem. Theory Comput., 2021, 17, 1701-1714
     DOI: 10.1021/acs.jctc.0c01306
   
   with help from (in alphabetical order)
   P. Atkinson, C. Bannwarth, F. Bohle, G. Brandenburg, E. Caldeweyher
   M. Checinski, S. Dohm, S. Ehlert, S. Ehrlich, I. Gerasimov, C. Hölzer
   A. Katbashev, J. Koopman, C. Lavigne, S. Lehtola, F. März, M. Müller,
   F. Musil, H. Neugebauer, J. Pisarek, C. Plett, P. Pracht, F. Pultar,
   J. Seibert, P. Shushkov, S. Spicher, M. Stahn, M. Steiner, T. Strunk,
   J. Stückrath, T. Rose, and J. Unsleber
   
 * started run on 2025/06/07 at 03:27:52.945     

           -------------------------------------------------
          |                Calculation Setup                |
           -------------------------------------------------

          program call               : xtb Be3C3H6.xyz --gfn 2 --opt
          coordinate file            : Be3C3H6.xyz
          omp threads                :                    16

   ID    Z sym.   atoms
    1    4 Be     1-3
    2    6 C      4-6
    3    1 H      7-12

molecular fragmentation (1/2 indicates fragments):
122222222222
# atoms in fragment 1/2:     1    11
 fragment masses (1/2) :        9.01       60.10
CMA distance (Bohr)    :   7.011
constraining FC (au)   :  0.0500

           -------------------------------------------------
          |                 G F N 2 - x T B                 |
           -------------------------------------------------

        Reference                      10.1021/acs.jctc.8b01176
      * Hamiltonian:
        H0-scaling (s, p, d)           1.850000    2.230000    2.230000
        zeta-weighting                 0.500000
      * Dispersion:
        s8                             2.700000
        a1                             0.520000
        a2                             5.000000
        s9                             5.000000
      * Repulsion:
        kExp                           1.500000    1.000000
        rExp                           1.000000
      * Coulomb:
        alpha                          2.000000
        third order                    shell-resolved
        anisotropic                    true
        a3                             3.000000
        a5                             4.000000
        cn-shift                       1.200000
        cn-exp                         4.000000
        max-rad                        5.000000

q/qsh data taken from xtbrestart
CAMM data taken from xtbrestart

          ...................................................
          :                      SETUP                      :
          :.................................................:
          :  # basis functions                  30          :
          :  # atomic orbitals                  30          :
          :  # shells                           18          :
          :  # electrons                        24          :
          :  max. iterations                   250          :
          :  Hamiltonian                  GFN2-xTB          :
          :  restarted?                       true          :
          :  GBSA solvation                  false          :
          :  PC potential                    false          :
          :  electronic temp.          300.0000000     K    :
          :  accuracy                    1.0000000          :
          :  -> integral cutoff          0.2500000E+02      :
          :  -> integral neglect         0.1000000E-07      :
          :  -> SCF convergence          0.1000000E-05 Eh   :
          :  -> wf. convergence          0.1000000E-03 e    :
          :  Broyden damping             0.4000000          :
          ...................................................

 iter      E             dE          RMSdq      gap      omega  full diag
   1     -8.4239064 -0.842391E+01  0.204E+01    0.65       0.0  T
   2     19.0075942  0.274315E+02  0.279E+01    0.63       1.0  T
   3     -0.7968898 -0.198045E+02  0.197E+01    0.39       1.0  T
   4     -3.1168662 -0.231998E+01  0.189E+01    0.38       1.0  T
   5     -3.8388527 -0.721986E+00  0.166E+01    0.36       1.0  T
   6     -9.9751646 -0.613631E+01  0.121E+01    0.31       1.0  T
   7     -6.4093565  0.356581E+01  0.160E+01    0.64       1.0  T
   8     -5.3518385  0.105752E+01  0.140E+01    0.69       1.0  T
   9     -8.7899278 -0.343809E+01  0.133E+01    0.51       1.0  T
  10     -9.1837848 -0.393857E+00  0.125E+01    0.52       1.0  T
  11     -9.1329432  0.508416E-01  0.122E+01    0.65       1.0  T
  12     -9.6744224 -0.541479E+00  0.118E+01    0.23       1.0  T
  13     -8.2976706  0.137675E+01  0.142E+01    0.08       1.0  T
  14     -6.3997586  0.189791E+01  0.196E+01    0.14       1.0  T
  15     -5.4095769  0.990182E+00  0.203E+01    0.14       1.0  T
  16    -10.4662002 -0.505662E+01  0.836E+00    0.47       1.0  T
  17    -10.4294000  0.368002E-01  0.777E+00    0.66       1.0  T
  18     -9.7725299  0.656870E+00  0.892E+00    0.29       1.0  T
  19     -9.9096491 -0.137119E+00  0.812E+00    0.31       1.0  T
  20    -10.0886670 -0.179018E+00  0.630E+00    0.40       1.0  T
  21    -10.4096485 -0.320981E+00  0.634E+00    0.38       1.0  T
  22    -10.4809470 -0.712985E-01  0.653E+00    0.45       1.0  T
  23    -10.4760833  0.486366E-02  0.674E+00    0.45       1.0  T
  24    -10.5406260 -0.645427E-01  0.671E+00    0.44       1.0  T
  25    -10.5479652 -0.733916E-02  0.670E+00    0.44       1.0  T
  26    -10.5422100  0.575513E-02  0.682E+00    0.43       1.0  T
  27    -10.4866745  0.555355E-01  0.778E+00    0.40       1.0  T
  28    -10.4595391  0.271354E-01  0.776E+00    0.40       1.0  T
  29    -10.4689316 -0.939248E-02  0.707E+00    0.45       1.0  T
  30    -10.5057035 -0.367719E-01  0.642E+00    0.46       1.0  T
  31    -10.5343873 -0.286838E-01  0.605E+00    0.46       1.0  T
  32    -10.5193746  0.150127E-01  0.586E+00    0.49       1.0  T
  33    -10.5507092 -0.313346E-01  0.490E+00    0.50       1.0  T
  34    -10.5472837  0.342542E-02  0.522E+00    0.49       1.0  T
  35    -10.5713820 -0.240983E-01  0.397E+00    0.47       1.0  T
  36    -10.5749545 -0.357242E-02  0.205E+00    0.42       1.0  T
  37    -10.5775170 -0.256250E-02  0.164E+00    0.39       1.0  T
  38    -10.5853174 -0.780041E-02  0.149E+00    0.38       1.0  T
  39    -10.5851876  0.129753E-03  0.149E+00    0.38       1.0  T
  40    -10.5883273 -0.313966E-02  0.131E+00    0.35       1.0  T
  41    -10.5881625  0.164741E-03  0.113E+00    0.36       1.0  T
  42    -10.5876892  0.473325E-03  0.100E+00    0.34       1.0  T
  43    -10.5889395 -0.125028E-02  0.755E-01    0.32       1.0  T
  44    -10.5882112  0.728288E-03  0.822E-01    0.30       1.0  T
  45    -10.5880475  0.163723E-03  0.921E-01    0.29       1.0  T
  46    -10.5892970 -0.124953E-02  0.947E-01    0.31       1.0  T
  47    -10.5886303  0.666731E-03  0.960E-01    0.30       1.0  T
  48    -10.5883968  0.233522E-03  0.890E-01    0.30       1.0  T
  49    -10.5894743 -0.107752E-02  0.793E-01    0.31       1.0  T
  50    -10.5885355  0.938791E-03  0.667E-01    0.30       1.0  T
  51    -10.5889233 -0.387776E-03  0.591E-01    0.29       1.0  T
  52    -10.5892985 -0.375248E-03  0.543E-01    0.30       1.0  T
  53    -10.5901229 -0.824431E-03  0.474E-01    0.29       1.0  T
  54    -10.5905972 -0.474227E-03  0.435E-01    0.30       1.0  T
  55    -10.5911470 -0.549798E-03  0.379E-01    0.29       1.0  T
  56    -10.5914987 -0.351689E-03  0.331E-01    0.30       1.0  T
  57    -10.5916459 -0.147242E-03  0.312E-01    0.30       1.0  T
  58    -10.5917326 -0.866766E-04  0.300E-01    0.30       1.0  T
  59    -10.5918177 -0.850732E-04  0.287E-01    0.30       1.0  T
  60    -10.5919698 -0.152153E-03  0.259E-01    0.30       1.0  T
  61    -10.5922236 -0.253803E-03  0.206E-01    0.29       1.0  T
  62    -10.5924065 -0.182911E-03  0.155E-01    0.29       1.0  T
  63    -10.5925151 -0.108579E-03  0.111E-01    0.29       1.0  T
  64    -10.5925666 -0.514644E-04  0.789E-02    0.29       1.0  T
  65    -10.5925905 -0.239617E-04  0.551E-02    0.29       1.0  T
  66    -10.5926048 -0.142453E-04  0.325E-02    0.29       1.0  T
  67    -10.5926115 -0.675821E-05  0.185E-02    0.29       1.6  T
  68    -10.5926139 -0.236134E-05  0.147E-02    0.29       2.0  T
  69    -10.5926144 -0.481239E-06  0.114E-02    0.29       2.5  T
  70    -10.5926145 -0.125445E-06  0.710E-03    0.29       4.1  T
  71    -10.5926146 -0.129074E-06  0.296E-03    0.29       9.7  T
  72    -10.5926147 -0.393713E-07  0.196E-03    0.29      14.7  T
  73    -10.5926147 -0.680025E-08  0.153E-03    0.29      18.8  T
  74    -10.5926147 -0.331717E-08  0.891E-04    0.29      32.4  T
  75    -10.5926147 -0.141521E-08  0.513E-04    0.29      56.2  T

   *** convergence criteria satisfied after 75 iterations ***

         #    Occupation            Energy/Eh            Energy/eV
      -------------------------------------------------------------
         1        2.0000           -0.5644848             -15.3604
       ...           ...                  ...                  ...
         6        2.0000           -0.3446227              -9.3777
         7        2.0000           -0.3326220              -9.0511
         8        2.0000           -0.2757693              -7.5041
         9        2.0000           -0.2727766              -7.4226
        10        2.0000           -0.2643944              -7.1945
        11        2.0000           -0.2556065              -6.9554
        12        1.9934           -0.2320445              -6.3143 (HOMO)
        13        0.0066           -0.2212065              -6.0193 (LUMO)
        14                         -0.2083101              -5.6684
        15                         -0.1930481              -5.2531
        16                         -0.1671719              -4.5490
        17                         -0.1615907              -4.3971
       ...                                ...                  ...
        30                          0.7905431              21.5118
      -------------------------------------------------------------
                  HL-Gap            0.0108380 Eh            0.2949 eV
             Fermi-level           -0.2266255 Eh           -6.1668 eV

 SCC (total)                   0 d,  0 h,  0 min,  0.023 sec
 SCC setup                      ...        0 min,  0.000 sec (  0.405%)
 Dispersion                     ...        0 min,  0.000 sec (  0.719%)
 classical contributions        ...        0 min,  0.000 sec (  0.817%)
 integral evaluation            ...        0 min,  0.000 sec (  1.153%)
 iterations                     ...        0 min,  0.021 sec ( 94.090%)
 molecular gradient             ...        0 min,  0.001 sec (  2.309%)
 printout                       ...        0 min,  0.000 sec (  0.412%)

         :::::::::::::::::::::::::::::::::::::::::::::::::::::
         ::                     SUMMARY                     ::
         :::::::::::::::::::::::::::::::::::::::::::::::::::::
         :: total energy             -10.507621994561 Eh    ::
         :: gradient norm              0.255318295447 Eh/a0 ::
         :: HOMO-LUMO gap              0.294918026721 eV    ::
         ::.................................................::
         :: SCC energy               -10.592614674902 Eh    ::
         :: -> isotropic ES           -0.089120585361 Eh    ::
         :: -> anisotropic ES          0.000586539324 Eh    ::
         :: -> anisotropic XC         -0.024507664307 Eh    ::
         :: -> dispersion             -0.011777810841 Eh    ::
         :: repulsion energy           0.084942899296 Eh    ::
         :: add. restraining           0.000000000000 Eh    ::
         :: total charge               0.000000000002 e     ::
         :::::::::::::::::::::::::::::::::::::::::::::::::::::

      ----------------------------------------------------------- 
     |                   =====================                   |
     |                        A N C O P T                        |
     |                   =====================                   |
     |               Approximate Normal Coordinate               |
     |                Rational Function Optimizer                |
      ----------------------------------------------------------- 

          ...................................................
          :                      SETUP                      :
          :.................................................:
          :   optimization level            normal          :
          :   max. optcycles                   200          :
          :   ANC micro-cycles                  20          :
          :   degrees of freedom                30          :
          :.................................................:
          :   RF solver                   davidson          :
          :   write xtbopt.log                true          :
          :   linear?                        false          :
          :   energy convergence         0.5000000E-05 Eh   :
          :   grad. convergence          0.1000000E-02 Eh/α :
          :   maximium RF displ.         1.0000000          :
          :   Hlow (freq-cutoff)         0.1000000E-01      :
          :   Hmax (freq-cutoff)         5.0000000          :
          :   S6 in model hess.         20.0000000          :
          ...................................................

generating ANC from model Hessian ...
Using Lindh-Hessian (1995)
 Shifting diagonal of input Hessian by    1.5550095141809427E-002
 Lowest  eigenvalues of input Hessian
    0.010000    0.011389    0.012019    0.013022    0.013819    0.013949
    0.014679    0.014935    0.015393    0.000000    0.000000    0.000000
    0.000000    0.000000    0.000000    0.015616    0.015731    0.015836
 Highest eigenvalues
    0.216701    0.252364    0.272703    0.327397    0.382819    0.416731


........................................................................
.............................. CYCLE    1 ..............................
........................................................................
   1    -10.5926147 -0.105926E+02  0.284E-04    0.29       0.0  T
   2    -10.5926147  0.108490E-08  0.213E-04    0.29     135.4  T
   3    -10.5926147  0.134444E-07  0.104E-03    0.29      27.7  T
   4    -10.5926147 -0.130257E-07  0.301E-04    0.29      95.9  T
     SCC iter.                  ...        0 min,  0.001 sec
     gradient                   ...        0 min,  0.001 sec
 * total energy  :   -10.5076220 Eh     change        0.1215357E-08 Eh
   gradient norm :     0.2552867 Eh/α   predicted     0.0000000E+00 (-100.00%)
   displ. norm   :     0.7588504 α      lambda       -0.1826316E+00
   maximum displ.:     0.3853891 α      in ANC's #23, #27, #21, ...

........................................................................
.............................. CYCLE    2 ..............................
........................................................................
   1    -10.6889522 -0.106890E+02  0.251E+00    0.16       0.0  T
   2     -7.9858537  0.270310E+01  0.974E+00    0.63       1.0  T
   3    -10.5906777 -0.260482E+01  0.288E+00    0.54       1.0  T
   4    -10.6895395 -0.988618E-01  0.246E+00    0.34       1.0  T
   5    -10.6152782  0.742613E-01  0.263E+00    0.41       1.0  T
   6    -10.6608127 -0.455345E-01  0.259E+00    0.37       1.0  T
   7    -10.6956324 -0.348197E-01  0.203E+00    0.27       1.0  T
   8    -10.7158061 -0.201737E-01  0.138E+00    0.36       1.0  T
   9    -10.7208974 -0.509125E-02  0.118E+00    0.32       1.0  T
  10    -10.7209341 -0.367574E-04  0.116E+00    0.33       1.0  T
  11    -10.7207985  0.135674E-03  0.119E+00    0.31       1.0  T
  12    -10.7349989 -0.142005E-01  0.690E-01    0.33       1.0  T
  13    -10.7347973  0.201659E-03  0.695E-01    0.33       1.0  T
  14    -10.7345961  0.201180E-03  0.716E-01    0.33       1.0  T
  15    -10.7364928 -0.189670E-02  0.462E-01    0.32       1.0  T
  16    -10.7373902 -0.897359E-03  0.638E-02    0.30       1.0  T
  17    -10.7374115 -0.213823E-04  0.401E-02    0.30       1.0  T
  18    -10.7374256 -0.141123E-04  0.147E-02    0.30       2.0  T
  19    -10.7374248  0.852901E-06  0.127E-02    0.30       2.3  T
  20    -10.7374265 -0.169235E-05  0.454E-03    0.30       6.4  T
  21    -10.7374266 -0.685151E-07  0.278E-03    0.30      10.4  T
  22    -10.7374266 -0.655825E-07  0.234E-03    0.30      12.3  T
  23    -10.7374266 -0.163455E-07  0.774E-04    0.30      37.3  T
  24    -10.7374266 -0.365045E-08  0.298E-04    0.30      96.9  T
     SCC iter.                  ...        0 min,  0.005 sec
     gradient                   ...        0 min,  0.000 sec
 * total energy  :   -10.6716582 Eh     change       -0.1640362E+00 Eh
   gradient norm :     0.2244527 Eh/α   predicted    -0.1439004E+00 ( -12.28%)
   displ. norm   :     0.9402346 α      lambda       -0.2081988E+00
   maximum displ.:     0.5710888 α      in ANC's #27, #21, #26, ...

........................................................................
.............................. CYCLE    3 ..............................
........................................................................
   1    -10.2084602 -0.102085E+02  0.101E+01    0.27       0.0  T
   2     -6.8962128  0.331225E+01  0.189E+01    1.10       1.0  T
   3     -9.1802008 -0.228399E+01  0.140E+01    0.65       1.0  T
   4     -8.5859473  0.594253E+00  0.122E+01    0.83       1.0  T
   5    -10.4804331 -0.189449E+01  0.741E+00    0.47       1.0  T
   6    -10.1218297  0.358603E+00  0.622E+00    0.19       1.0  T
   7    -10.9046669 -0.782837E+00  0.310E+00    0.43       1.0  T
   8    -10.4045334  0.500134E+00  0.753E+00    0.27       1.0  T
   9    -10.8063456 -0.401812E+00  0.443E+00    0.22       1.0  T
  10    -10.8295141 -0.231685E-01  0.402E+00    0.23       1.0  T
  11    -10.9335751 -0.104061E+00  0.253E+00    0.29       1.0  T
  12    -10.9430748 -0.949977E-02  0.301E+00    0.37       1.0  T
  13    -10.9440331 -0.958278E-03  0.304E+00    0.38       1.0  T
  14    -10.9191685  0.248646E-01  0.354E+00    0.40       1.0  T
  15    -10.9163562  0.281229E-02  0.359E+00    0.41       1.0  T
  16    -10.8686115  0.477447E-01  0.390E+00    0.39       1.0  T
  17    -10.8710094 -0.239791E-02  0.384E+00    0.38       1.0  T
  18    -10.8835506 -0.125412E-01  0.357E+00    0.33       1.0  T
  19    -10.8836926 -0.142051E-03  0.356E+00    0.33       1.0  T
  20    -10.8992777 -0.155851E-01  0.353E+00    0.32       1.0  T
  21    -10.9011520 -0.187426E-02  0.348E+00    0.32       1.0  T
  22    -10.8959058  0.524617E-02  0.378E+00    0.34       1.0  T
  23    -10.9052222 -0.931645E-02  0.358E+00    0.33       1.0  T
  24    -10.9361763 -0.309541E-01  0.242E+00    0.28       1.0  T
  25    -10.9618865 -0.257102E-01  0.149E+00    0.25       1.0  T
  26    -10.9536188  0.826769E-02  0.176E+00    0.26       1.0  T
  27    -10.9656899 -0.120711E-01  0.128E+00    0.25       1.0  T
  28    -10.9696028 -0.391289E-02  0.976E-01    0.24       1.0  T
  29    -10.9724173 -0.281454E-02  0.786E-01    0.24       1.0  T
  30    -10.9765366 -0.411925E-02  0.425E-01    0.23       1.0  T
  31    -10.9772036 -0.667071E-03  0.310E-01    0.23       1.0  T
  32    -10.9776619 -0.458276E-03  0.151E-01    0.23       1.0  T
  33    -10.9776714 -0.950820E-05  0.138E-01    0.23       1.0  T
  34    -10.9775996  0.717817E-04  0.153E-01    0.23       1.0  T
  35    -10.9777248 -0.125147E-03  0.905E-02    0.23       1.0  T
  36    -10.9778032 -0.784375E-04  0.339E-02    0.23       1.0  T
  37    -10.9778051 -0.190222E-05  0.208E-02    0.23       1.4  T
  38    -10.9778068 -0.166341E-05  0.117E-02    0.23       2.5  T
  39    -10.9778061  0.730577E-06  0.135E-02    0.23       2.1  T
  40    -10.9778074 -0.131175E-05  0.732E-03    0.23       3.9  T
  41    -10.9778076 -0.226095E-06  0.579E-03    0.23       5.0  T
  42    -10.9778077 -0.123117E-06  0.503E-03    0.23       5.7  T
  43    -10.9778078 -0.543078E-07  0.413E-03    0.23       7.0  T
  44    -10.9778078 -0.218487E-07  0.244E-03    0.23      11.8  T
  45    -10.9778078 -0.163152E-07  0.171E-03    0.23      16.9  T
  46    -10.9778078 -0.100938E-07  0.507E-04    0.23      56.9  T
  47    -10.9778078 -0.851108E-09  0.307E-04    0.23      94.1  T
     SCC iter.                  ...        0 min,  0.010 sec
     gradient                   ...        0 min,  0.000 sec
 * total energy  :   -10.8108895 Eh     change       -0.1392314E+00 Eh
   gradient norm :     0.2149318 Eh/α   predicted    -0.1961275E+00 (  40.86%)
   displ. norm   :     0.7831747 α      lambda       -0.1291677E+00
   maximum displ.:     0.3873034 α      in ANC's #2, #21, #19, ...

........................................................................
.............................. CYCLE    4 ..............................
........................................................................
   1    -10.9944120 -0.109944E+02  0.375E+00    1.46       0.0  T
   2    -10.4279800  0.566432E+00  0.544E+00    0.28       1.0  T
   3    -10.8888355 -0.460856E+00  0.358E+00    1.29       1.0  T
   4    -10.8342605  0.545750E-01  0.511E+00    1.46       1.0  T
   5    -11.0006513 -0.166391E+00  0.230E+00    1.08       1.0  T
   6    -11.0020345 -0.138314E-02  0.184E+00    1.28       1.0  T
   7    -10.9984409  0.359361E-02  0.184E+00    1.31       1.0  T
   8    -11.0109337 -0.124929E-01  0.121E+00    1.35       1.0  T
   9    -11.0135157 -0.258193E-02  0.798E-01    1.38       1.0  T
  10    -11.0179482 -0.443256E-02  0.610E-01    1.31       1.0  T
  11    -11.0192344 -0.128614E-02  0.368E-01    1.26       1.0  T
  12    -11.0197734 -0.538993E-03  0.214E-01    1.23       1.0  T
  13    -11.0199970 -0.223667E-03  0.156E-01    1.22       1.0  T
  14    -11.0200584 -0.614097E-04  0.824E-02    1.18       1.0  T
  15    -11.0200039  0.545563E-04  0.864E-02    1.17       1.0  T
  16    -11.0200815 -0.776351E-04  0.439E-02    1.18       1.0  T
  17    -11.0200870 -0.550460E-05  0.166E-02    1.19       1.7  T
  18    -11.0200896 -0.261013E-05  0.428E-03    1.19       6.7  T
  19    -11.0200897 -0.110862E-06  0.209E-03    1.19      13.8  T
  20    -11.0200898 -0.258582E-07  0.112E-03    1.19      25.8  T
  21    -11.0200898 -0.879979E-08  0.541E-04    1.19      53.3  T
  22    -11.0200898 -0.179438E-08  0.204E-04    1.19     141.7  T
     SCC iter.                  ...        0 min,  0.004 sec
     gradient                   ...        0 min,  0.000 sec
 * total energy  :   -10.9005728 Eh     change       -0.8968331E-01 Eh
   gradient norm :     0.1040801 Eh/α   predicted    -0.1041971E+00 (  16.18%)
   displ. norm   :     0.8798795 α      lambda       -0.7698432E-01
   maximum displ.:     0.5475725 α      in ANC's #2, #3, #7, ...

........................................................................
.............................. CYCLE    5 ..............................
........................................................................
   1    -11.0942440 -0.110942E+02  0.315E+00    0.86       0.0  T
   2    -10.9846537  0.109590E+00  0.480E+00    1.71       1.0  T
   3    -11.0980828 -0.113429E+00  0.240E+00    1.35       1.0  T
   4    -10.8077824  0.290300E+00  0.395E+00    0.40       1.0  T
   5    -10.9496173 -0.141835E+00  0.358E+00    1.21       1.0  T
   6    -11.0664154 -0.116798E+00  0.214E+00    1.38       1.0  T
   7    -11.0964848 -0.300693E-01  0.131E+00    1.19       1.0  T
   8    -11.1151320 -0.186473E-01  0.982E-01    1.19       1.0  T
   9    -11.1164361 -0.130408E-02  0.959E-01    1.16       1.0  T
  10    -11.1256179 -0.918175E-02  0.328E-01    1.06       1.0  T
  11    -11.1246431  0.974780E-03  0.264E-01    1.00       1.0  T
  12    -11.1257244 -0.108135E-02  0.110E-01    1.06       1.0  T
  13    -11.1259612 -0.236735E-03  0.873E-02    1.05       1.0  T
  14    -11.1259634 -0.222603E-05  0.692E-02    1.06       1.0  T
  15    -11.1259280  0.353797E-04  0.648E-02    1.08       1.0  T
  16    -11.1259801 -0.521417E-04  0.310E-02    1.07       1.0  T
  17    -11.1259894 -0.928180E-05  0.186E-02    1.07       1.6  T
  18    -11.1259911 -0.166632E-05  0.446E-03    1.07       6.5  T
  19    -11.1259914 -0.291850E-06  0.207E-03    1.07      13.9  T
  20    -11.1259914 -0.574818E-07  0.475E-04    1.07      60.7  T
  21    -11.1259914 -0.231593E-08  0.988E-05    1.07     292.1  T
     SCC iter.                  ...        0 min,  0.004 sec
     gradient                   ...        0 min,  0.000 sec
 * total energy  :   -10.9363089 Eh     change       -0.3573606E-01 Eh
   gradient norm :     0.1553119 Eh/α   predicted    -0.6829234E-01 (  91.10%)
   displ. norm   :     0.7078488 α      lambda       -0.7775425E-01
   maximum displ.:     0.3836871 α      in ANC's #7, #19, #15, ...

........................................................................
.............................. CYCLE    6 ..............................
........................................................................
   1    -11.1137844 -0.111138E+02  0.323E+00    1.20       0.0  T
   2    -11.0411500  0.726345E-01  0.286E+00    1.23       1.0  T
   3    -10.8758324  0.165318E+00  0.473E+00    0.90       1.0  T
   4    -11.0845253 -0.208693E+00  0.218E+00    1.08       1.0  T
   5    -11.1170508 -0.325255E-01  0.110E+00    1.16       1.0  T
   6    -11.1210491 -0.399834E-02  0.116E+00    1.08       1.0  T
   7    -11.1247935 -0.374436E-02  0.802E-01    1.10       1.0  T
   8    -11.1226871  0.210634E-02  0.875E-01    1.15       1.0  T
   9    -11.1298430 -0.715585E-02  0.266E-01    1.12       1.0  T
  10    -11.1299225 -0.795280E-04  0.204E-01    1.11       1.0  T
  11    -11.1299401 -0.175719E-04  0.191E-01    1.12       1.0  T
  12    -11.1303016 -0.361498E-03  0.891E-02    1.12       1.0  T
  13    -11.1304105 -0.108933E-03  0.161E-02    1.12       1.8  T
  14    -11.1304091  0.138484E-05  0.188E-02    1.12       1.5  T
  15    -11.1304128 -0.365758E-05  0.480E-03    1.12       6.0  T
  16    -11.1304131 -0.322708E-06  0.981E-04    1.12      29.4  T
  17    -11.1304131 -0.511599E-08  0.442E-04    1.12      65.3  T
     SCC iter.                  ...        0 min,  0.003 sec
     gradient                   ...        0 min,  0.001 sec
 * total energy  :   -10.9469212 Eh     change       -0.1061225E-01 Eh
   gradient norm :     0.1336156 Eh/α   predicted    -0.5835650E-01 ( 449.90%)
   displ. norm   :     0.7822074 α      lambda       -0.7954552E-01
   maximum displ.:     0.4859832 α      in ANC's #2, #7, #1, ...

........................................................................
.............................. CYCLE    7 ..............................
........................................................................
   1    -11.1241714 -0.111242E+02  0.354E+00    0.96       0.0  T
   2    -11.0773662  0.468052E-01  0.317E+00    0.80       1.0  T
   3    -10.9806636  0.967027E-01  0.389E+00    1.04       1.0  T
   4    -11.0401960 -0.595324E-01  0.307E+00    0.39       1.0  T
   5    -11.1237658 -0.835698E-01  0.965E-01    1.00       1.0  T
   6    -11.1195304  0.423541E-02  0.130E+00    0.98       1.0  T
   7    -11.1336413 -0.141109E-01  0.590E-01    0.97       1.0  T
   8    -11.1343042 -0.662854E-03  0.481E-01    0.96       1.0  T
   9    -11.1341623  0.141881E-03  0.238E-01    0.96       1.0  T
  10    -11.1341962 -0.339081E-04  0.215E-01    0.97       1.0  T
  11    -11.1347349 -0.538740E-03  0.759E-02    0.97       1.0  T
  12    -11.1346079  0.127092E-03  0.108E-01    0.98       1.0  T
  13    -11.1347854 -0.177588E-03  0.152E-02    0.97       1.9  T
  14    -11.1347868 -0.135347E-05  0.605E-03    0.97       4.8  T
  15    -11.1347871 -0.262688E-06  0.246E-03    0.97      11.7  T
  16    -11.1347871  0.379431E-08  0.239E-03    0.97      12.1  T
  17    -11.1347871 -0.267953E-07  0.110E-03    0.97      26.2  T
  18    -11.1347871  0.189480E-08  0.707E-04    0.97      40.8  T
  19    -11.1347871 -0.475143E-08  0.159E-04    0.97     181.4  T
     SCC iter.                  ...        0 min,  0.004 sec
     gradient                   ...        0 min,  0.001 sec
 * total energy  :   -10.9764632 Eh     change       -0.2954205E-01 Eh
   gradient norm :     0.1045142 Eh/α   predicted    -0.6410766E-01 ( 117.00%)
   displ. norm   :     0.6860358 α      lambda       -0.5625632E-01
   maximum displ.:     0.3955387 α      in ANC's #7, #19, #1, ...

........................................................................
.............................. CYCLE    8 ..............................
........................................................................
   1    -11.1730020 -0.111730E+02  0.336E+00    1.52       0.0  T
   2    -11.0155725  0.157430E+00  0.354E+00    1.33       1.0  T
   3    -10.9296156  0.859569E-01  0.542E+00    1.28       1.0  T
   4    -11.0161269 -0.865114E-01  0.362E+00    1.46       1.0  T
   5    -10.9259184  0.902085E-01  0.505E+00    1.26       1.0  T
   6    -11.1791027 -0.253184E+00  0.804E-01    1.37       1.0  T
   7    -11.1816598 -0.255705E-02  0.115E+00    1.52       1.0  T
   8    -11.1760430  0.561675E-02  0.129E+00    1.49       1.0  T
   9    -11.1796224 -0.357937E-02  0.848E-01    1.47       1.0  T
  10    -11.1847176 -0.509518E-02  0.361E-01    1.47       1.0  T
  11    -11.1850545 -0.336914E-03  0.253E-01    1.47       1.0  T
  12    -11.1849878  0.666781E-04  0.208E-01    1.47       1.0  T
  13    -11.1851863 -0.198454E-03  0.925E-02    1.48       1.0  T
  14    -11.1852851 -0.987757E-04  0.154E-02    1.48       1.9  T
  15    -11.1852860 -0.945532E-06  0.107E-02    1.48       2.7  T
  16    -11.1852850  0.987634E-06  0.125E-02    1.48       2.3  T
  17    -11.1852859 -0.891072E-06  0.817E-03    1.48       3.5  T
  18    -11.1852863 -0.352140E-06  0.257E-03    1.48      11.2  T
  19    -11.1852863 -0.348638E-07  0.533E-04    1.48      54.2  T
  20    -11.1852863 -0.444976E-09  0.233E-04    1.48     123.7  T
     SCC iter.                  ...        0 min,  0.004 sec
     gradient                   ...        0 min,  0.000 sec
 * total energy  :   -11.0117522 Eh     change       -0.3528898E-01 Eh
   gradient norm :     0.0846846 Eh/α   predicted    -0.4136654E-01 (  17.22%)
   displ. norm   :     0.8327691 α      lambda       -0.5296315E-01
   maximum displ.:     0.4245178 α      in ANC's #4, #1, #19, ...

........................................................................
.............................. CYCLE    9 ..............................
........................................................................
   1    -11.2140212 -0.112140E+02  0.351E+00    1.47       0.0  T
   2    -11.1957069  0.183143E-01  0.250E+00    1.36       1.0  T
   3    -10.8821330  0.313574E+00  0.487E+00    1.31       1.0  T
   4    -11.2022060 -0.320073E+00  0.114E+00    1.42       1.0  T
   5    -11.2144364 -0.122304E-01  0.970E-01    1.44       1.0  T
   6    -11.2190126 -0.457621E-02  0.544E-01    1.40       1.0  T
   7    -11.2167708  0.224177E-02  0.589E-01    1.42       1.0  T
   8    -11.2186846 -0.191377E-02  0.493E-01    1.43       1.0  T
   9    -11.2195734 -0.888841E-03  0.179E-01    1.41       1.0  T
  10    -11.2199484 -0.374936E-03  0.831E-02    1.39       1.0  T
  11    -11.2199680 -0.196186E-04  0.646E-02    1.40       1.0  T
  12    -11.2200163 -0.483267E-04  0.260E-02    1.40       1.1  T
  13    -11.2200250 -0.872546E-05  0.106E-02    1.40       2.7  T
  14    -11.2200262 -0.114725E-05  0.372E-03    1.40       7.8  T
  15    -11.2200262 -0.340516E-07  0.188E-03    1.40      15.4  T
  16    -11.2200263 -0.363265E-07  0.480E-04    1.40      60.1  T
  17    -11.2200263 -0.279670E-08  0.285E-04    1.40     101.3  T
     SCC iter.                  ...        0 min,  0.003 sec
     gradient                   ...        0 min,  0.001 sec
 * total energy  :   -11.0254969 Eh     change       -0.1374475E-01 Eh
   gradient norm :     0.1993645 Eh/α   predicted    -0.4484667E-01 ( 226.28%)
   displ. norm   :     0.5541315 α      lambda       -0.7010054E-01
   maximum displ.:     0.2666204 α      in ANC's #7, #19, #3, ...

........................................................................
.............................. CYCLE   10 ..............................
........................................................................
   1    -11.2342346 -0.112342E+02  0.217E+00    1.71       0.0  T
   2    -11.2270317  0.720299E-02  0.151E+00    1.67       1.0  T
   3    -11.1087365  0.118295E+00  0.273E+00    1.51       1.0  T
   4    -11.2249554 -0.116219E+00  0.933E-01    1.68       1.0  T
   5    -11.2264986 -0.154320E-02  0.747E-01    1.65       1.0  T
   6    -11.2361168 -0.961822E-02  0.394E-01    1.68       1.0  T
   7    -11.2354201  0.696720E-03  0.353E-01    1.67       1.0  T
   8    -11.2365411 -0.112107E-02  0.184E-01    1.69       1.0  T
   9    -11.2366044 -0.632516E-04  0.101E-01    1.67       1.0  T
  10    -11.2367406 -0.136218E-03  0.562E-02    1.67       1.0  T
  11    -11.2367501 -0.946313E-05  0.264E-02    1.67       1.1  T
  12    -11.2367535 -0.344493E-05  0.173E-02    1.67       1.7  T
  13    -11.2367557 -0.217304E-05  0.113E-02    1.67       2.6  T
  14    -11.2367575 -0.178748E-05  0.275E-03    1.67      10.5  T
  15    -11.2367575  0.103352E-08  0.149E-03    1.67      19.4  T
  16    -11.2367575 -0.625662E-08  0.768E-04    1.67      37.6  T
  17    -11.2367575 -0.625075E-09  0.143E-04    1.67     201.2  T
     SCC iter.                  ...        0 min,  0.002 sec
     gradient                   ...        0 min,  0.001 sec
 * total energy  :   -11.0520629 Eh     change       -0.2656596E-01 Eh
   gradient norm :     0.1026044 Eh/α   predicted    -0.4581286E-01 (  72.45%)
   displ. norm   :     0.7515922 α      lambda       -0.5470405E-01
   maximum displ.:     0.3436204 α      in ANC's #5, #3, #4, ...

........................................................................
.............................. CYCLE   11 ..............................
........................................................................
   1    -11.2458249 -0.112458E+02  0.265E+00    1.26       0.0  T
   2    -11.2249761  0.208488E-01  0.220E+00    1.34       1.0  T
   3    -11.0421971  0.182779E+00  0.420E+00    1.11       1.0  T
   4    -11.2382599 -0.196063E+00  0.845E-01    1.15       1.0  T
   5    -11.2254433  0.128166E-01  0.127E+00    1.23       1.0  T
   6    -11.2449058 -0.194624E-01  0.717E-01    1.26       1.0  T
   7    -11.2451902 -0.284397E-03  0.575E-01    1.25       1.0  T
   8    -11.2491818 -0.399161E-02  0.235E-01    1.27       1.0  T
   9    -11.2499574 -0.775641E-03  0.106E-01    1.26       1.0  T
  10    -11.2500979 -0.140451E-03  0.787E-02    1.26       1.0  T
  11    -11.2501475 -0.496388E-04  0.471E-02    1.25       1.0  T
  12    -11.2501504 -0.294861E-05  0.337E-02    1.26       1.0  T
  13    -11.2501580 -0.753788E-05  0.215E-02    1.25       1.3  T
  14    -11.2501646 -0.663372E-05  0.484E-03    1.26       6.0  T
  15    -11.2501648 -0.206312E-06  0.157E-03    1.26      18.3  T
  16    -11.2501648 -0.252186E-07  0.792E-04    1.26      36.4  T
  17    -11.2501648 -0.454357E-09  0.564E-04    1.26      51.2  T
     SCC iter.                  ...        0 min,  0.003 sec
     gradient                   ...        0 min,  0.000 sec
 * total energy  :   -11.0446845 Eh     change        0.7378431E-02 Eh
   gradient norm :     0.1470976 Eh/α   predicted    -0.4280295E-01 (-680.11%)
   displ. norm   :     0.5558864 α      lambda       -0.5533167E-01
   maximum displ.:     0.2400601 α      in ANC's #7, #1, #19, ...

........................................................................
.............................. CYCLE   12 ..............................
........................................................................
   1    -11.2520258 -0.112520E+02  0.220E+00    1.87       0.0  T
   2    -11.1247756  0.127250E+00  0.276E+00    1.73       1.0  T
   3    -11.2253116 -0.100536E+00  0.172E+00    1.90       1.0  T
   4    -11.2426306 -0.173191E-01  0.141E+00    1.75       1.0  T
   5    -11.2656532 -0.230225E-01  0.385E-01    1.95       1.0  T
   6    -11.2657174 -0.642175E-04  0.418E-01    1.96       1.0  T
   7    -11.2655892  0.128163E-03  0.417E-01    1.96       1.0  T
   8    -11.2648016  0.787622E-03  0.414E-01    1.96       1.0  T
   9    -11.2658268 -0.102518E-02  0.122E-01    1.96       1.0  T
  10    -11.2660386 -0.211827E-03  0.906E-02    1.96       1.0  T
  11    -11.2660581 -0.195062E-04  0.830E-02    1.96       1.0  T
  12    -11.2660646 -0.647497E-05  0.179E-02    1.96       1.6  T
  13    -11.2660672 -0.255649E-05  0.101E-02    1.96       2.8  T
  14    -11.2660687 -0.159229E-05  0.396E-03    1.96       7.3  T
  15    -11.2660689 -0.144156E-06  0.134E-03    1.96      21.6  T
  16    -11.2660689  0.196013E-08  0.375E-04    1.96      77.0  T
  17    -11.2660689 -0.280415E-08  0.203E-04    1.96     142.1  T
     SCC iter.                  ...        0 min,  0.004 sec
     gradient                   ...        0 min,  0.001 sec
 * total energy  :   -11.0700801 Eh     change       -0.2539565E-01 Eh
   gradient norm :     0.0905573 Eh/α   predicted    -0.3621484E-01 (  42.60%)
   displ. norm   :     0.5839514 α      lambda       -0.3371797E-01
   maximum displ.:     0.3336735 α      in ANC's #4, #1, #13, ...

........................................................................
.............................. CYCLE   13 ..............................
........................................................................
   1    -11.2727179 -0.112727E+02  0.178E+00    2.02       0.0  T
   2    -11.2581574  0.145605E-01  0.138E+00    1.92       1.0  T
   3    -11.1334138  0.124744E+00  0.235E+00    1.94       1.0  T
   4    -11.2683465 -0.134933E+00  0.561E-01    1.94       1.0  T
   5    -11.2718009 -0.345438E-02  0.443E-01    1.96       1.0  T
   6    -11.2740433 -0.224244E-02  0.309E-01    1.99       1.0  T
   7    -11.2744645 -0.421220E-03  0.250E-01    1.99       1.0  T
   8    -11.2745181 -0.535199E-04  0.143E-01    1.96       1.0  T
   9    -11.2748591 -0.341047E-03  0.436E-02    1.99       1.0  T
  10    -11.2748676 -0.848466E-05  0.473E-02    1.99       1.0  T
  11    -11.2748715 -0.390955E-05  0.329E-02    1.98       1.0  T
  12    -11.2748791 -0.757416E-05  0.130E-02    1.98       2.2  T
  13    -11.2748814 -0.234197E-05  0.218E-03    1.98      13.3  T
  14    -11.2748814 -0.146437E-08  0.118E-03    1.98      24.5  T
  15    -11.2748814 -0.106434E-07  0.514E-04    1.98      56.2  T
  16    -11.2748814 -0.143706E-08  0.173E-04    1.98     166.9  T
     SCC iter.                  ...        0 min,  0.003 sec
     gradient                   ...        0 min,  0.002 sec
 * total energy  :   -11.0820105 Eh     change       -0.1193035E-01 Eh
   gradient norm :     0.0602275 Eh/α   predicted    -0.2260788E-01 (  89.50%)
   displ. norm   :     0.5726285 α      lambda       -0.1976642E-01
   maximum displ.:     0.3079622 α      in ANC's #7, #1, #10, ...

........................................................................
.............................. CYCLE   14 ..............................
........................................................................
   1    -11.2946327 -0.112946E+02  0.229E+00    1.82       0.0  T
   2    -11.2684522  0.261805E-01  0.173E+00    1.85       1.0  T
   3    -10.9851063  0.283346E+00  0.418E+00    1.37       1.0  T
   4    -11.2753595 -0.290253E+00  0.112E+00    1.64       1.0  T
   5    -11.2947579 -0.193985E-01  0.550E-01    1.86       1.0  T
   6    -11.2970533 -0.229538E-02  0.340E-01    1.78       1.0  T
   7    -11.2976923 -0.638972E-03  0.261E-01    1.78       1.0  T
   8    -11.2980921 -0.399790E-03  0.166E-01    1.81       1.0  T
   9    -11.2981561 -0.640621E-04  0.858E-02    1.81       1.0  T
  10    -11.2981719 -0.157905E-04  0.639E-02    1.81       1.0  T
  11    -11.2981843 -0.123560E-04  0.414E-02    1.81       1.0  T
  12    -11.2981863 -0.199828E-05  0.285E-02    1.81       1.0  T
  13    -11.2981942 -0.791323E-05  0.788E-03    1.81       3.7  T
  14    -11.2981945 -0.311303E-06  0.217E-03    1.81      13.3  T
  15    -11.2981946 -0.466753E-07  0.731E-04    1.81      39.5  T
  16    -11.2981946 -0.418688E-08  0.376E-04    1.81      76.8  T
     SCC iter.                  ...        0 min,  0.003 sec
     gradient                   ...        0 min,  0.000 sec
 * total energy  :   -11.0928293 Eh     change       -0.1081884E-01 Eh
   gradient norm :     0.0437377 Eh/α   predicted    -0.1312394E-01 (  21.31%)
   displ. norm   :     0.6445074 α      lambda       -0.1486213E-01
   maximum displ.:     0.3016546 α      in ANC's #1, #10, #6, ...

........................................................................
.............................. CYCLE   15 ..............................
........................................................................
   1    -11.2851553 -0.112852E+02  0.183E+00    1.67       0.0  T
   2    -11.2726662  0.124890E-01  0.127E+00    1.73       1.0  T
   3    -11.0752398  0.197426E+00  0.329E+00    1.33       1.0  T
   4    -11.2666712 -0.191431E+00  0.895E-01    1.56       1.0  T
   5    -11.2806274 -0.139562E-01  0.569E-01    1.70       1.0  T
   6    -11.2861659 -0.553850E-02  0.304E-01    1.68       1.0  T
   7    -11.2869014 -0.735511E-03  0.188E-01    1.67       1.0  T
   8    -11.2867716  0.129792E-03  0.131E-01    1.71       1.0  T
   9    -11.2869493 -0.177698E-03  0.692E-02    1.68       1.0  T
  10    -11.2869815 -0.322273E-04  0.394E-02    1.68       1.0  T
  11    -11.2869865 -0.493382E-05  0.328E-02    1.68       1.0  T
  12    -11.2869886 -0.209706E-05  0.148E-02    1.68       2.0  T
  13    -11.2869890 -0.480844E-06  0.684E-03    1.68       4.2  T
  14    -11.2869891 -0.702811E-07  0.201E-03    1.68      14.3  T
  15    -11.2869891 -0.421427E-07  0.318E-04    1.68      90.9  T
  16    -11.2869891 -0.133404E-09  0.105E-04    1.68     275.4  T
     SCC iter.                  ...        0 min,  0.004 sec
     gradient                   ...        0 min,  0.000 sec
 * total energy  :   -11.0921593 Eh     change        0.6699823E-03 Eh
   gradient norm :     0.0627311 Eh/α   predicted    -0.1051785E-01 (*******%)
   displ. norm   :     0.4092231 α      lambda       -0.1633152E-01
   maximum displ.:     0.2224842 α      in ANC's #7, #4, #12, ...

........................................................................
.............................. CYCLE   16 ..............................
........................................................................
   1    -11.3101011 -0.113101E+02  0.129E+00    1.93       0.0  T
   2    -11.3030540  0.704711E-02  0.102E+00    1.89       1.0  T
   3    -11.2261258  0.769283E-01  0.176E+00    1.87       1.0  T
   4    -11.3085221 -0.823963E-01  0.354E-01    1.86       1.0  T
   5    -11.3100231 -0.150104E-02  0.301E-01    1.91       1.0  T
   6    -11.3109140 -0.890843E-03  0.188E-01    1.92       1.0  T
   7    -11.3106547  0.259271E-03  0.191E-01    1.90       1.0  T
   8    -11.3108908 -0.236130E-03  0.120E-01    1.92       1.0  T
   9    -11.3110979 -0.207041E-03  0.241E-02    1.90       1.2  T
  10    -11.3110982 -0.341336E-06  0.186E-02    1.91       1.5  T
  11    -11.3111022 -0.402654E-05  0.795E-03    1.90       3.6  T
  12    -11.3111030 -0.772441E-06  0.293E-03    1.90       9.8  T
  13    -11.3111031 -0.937353E-07  0.120E-03    1.90      24.0  T
  14    -11.3111031 -0.692389E-08  0.444E-04    1.90      65.0  T
  15    -11.3111031 -0.106679E-08  0.101E-04    1.90     287.2  T
     SCC iter.                  ...        0 min,  0.002 sec
     gradient                   ...        0 min,  0.000 sec
 * total energy  :   -11.0978782 Eh     change       -0.5718874E-02 Eh
   gradient norm :     0.0695343 Eh/α   predicted    -0.9533229E-02 (  66.70%)
   displ. norm   :     0.5901696 α      lambda       -0.2256805E-01
   maximum displ.:     0.2114429 α      in ANC's #19, #2, #11, ...

........................................................................
.............................. CYCLE   17 ..............................
........................................................................
   1    -11.3083382 -0.113083E+02  0.235E+00    1.53       0.0  T
   2    -11.1865233  0.121815E+00  0.242E+00    1.76       1.0  T
   3    -11.1550042  0.315191E-01  0.295E+00    1.30       1.0  T
   4    -11.2897463 -0.134742E+00  0.173E+00    1.45       1.0  T
   5    -11.3027229 -0.129766E-01  0.836E-01    1.53       1.0  T
   6    -11.3234472 -0.207243E-01  0.499E-01    1.66       1.0  T
   7    -11.3230347  0.412451E-03  0.436E-01    1.67       1.0  T
   8    -11.3217741  0.126066E-02  0.387E-01    1.69       1.0  T
   9    -11.3237152 -0.194109E-02  0.934E-02    1.68       1.0  T
  10    -11.3237587 -0.435658E-04  0.657E-02    1.68       1.0  T
  11    -11.3237515  0.726222E-05  0.474E-02    1.68       1.0  T
  12    -11.3237613 -0.982831E-05  0.173E-02    1.68       1.7  T
  13    -11.3237627 -0.144289E-05  0.843E-03    1.68       3.4  T
  14    -11.3237628 -0.906426E-08  0.386E-03    1.68       7.5  T
  15    -11.3237631 -0.305335E-06  0.937E-04    1.68      30.8  T
  16    -11.3237631 -0.291374E-08  0.385E-04    1.68      75.0  T
     SCC iter.                  ...        0 min,  0.003 sec
     gradient                   ...        0 min,  0.000 sec
 * total energy  :   -11.0803999 Eh     change        0.1747828E-01 Eh
   gradient norm :     0.1520477 Eh/α   predicted    -0.1521424E-01 (-187.05%)
   displ. norm   :     0.3613239 α      lambda       -0.4298360E-01
   maximum displ.:     0.1601601 α      in ANC's #18, #12, #19, ...

........................................................................
.............................. CYCLE   18 ..............................
........................................................................
   1    -11.2772286 -0.112772E+02  0.126E+00    1.66       0.0  T
   2    -11.2597672  0.174614E-01  0.105E+00    1.52       1.0  T
   3    -11.2055891  0.541781E-01  0.159E+00    1.69       1.0  T
   4    -11.2659824 -0.603933E-01  0.853E-01    1.63       1.0  T
   5    -11.2765405 -0.105581E-01  0.337E-01    1.58       1.0  T
   6    -11.2784197 -0.187919E-02  0.255E-01    1.63       1.0  T
   7    -11.2793627 -0.942951E-03  0.155E-01    1.64       1.0  T
   8    -11.2792998  0.628694E-04  0.136E-01    1.63       1.0  T
   9    -11.2794006 -0.100800E-03  0.268E-02    1.64       1.1  T
  10    -11.2794041 -0.343319E-05  0.199E-02    1.64       1.4  T
  11    -11.2794044 -0.380853E-06  0.166E-02    1.64       1.7  T
  12    -11.2794067 -0.230789E-05  0.453E-03    1.64       6.4  T
  13    -11.2794069 -0.194746E-06  0.281E-03    1.64      10.3  T
  14    -11.2794070 -0.652365E-07  0.494E-04    1.64      58.5  T
  15    -11.2794070 -0.637916E-09  0.227E-04    1.64     127.0  T
     SCC iter.                  ...        0 min,  0.003 sec
     gradient                   ...        0 min,  0.001 sec
 * total energy  :   -11.0962487 Eh     change       -0.1584876E-01 Eh
   gradient norm :     0.0697226 Eh/α   predicted    -0.2429766E-01 (  53.31%)
   displ. norm   :     0.5741808 α      lambda       -0.2934021E-01
   maximum displ.:     0.2173140 α      in ANC's #25, #19, #10, ...

........................................................................
.............................. CYCLE   19 ..............................
........................................................................
   1    -11.3086022 -0.113086E+02  0.199E+00    1.86       0.0  T
   2    -11.2796541  0.289481E-01  0.191E+00    1.48       1.0  T
   3    -11.2637991  0.158550E-01  0.152E+00    1.75       1.0  T
   4    -11.2552585  0.854061E-02  0.174E+00    1.76       1.0  T
   5    -11.3124973 -0.572389E-01  0.455E-01    1.62       1.0  T
   6    -11.3148790 -0.238169E-02  0.246E-01    1.74       1.0  T
   7    -11.3150010 -0.121950E-03  0.232E-01    1.74       1.0  T
   8    -11.3146177  0.383257E-03  0.229E-01    1.73       1.0  T
   9    -11.3153041 -0.686413E-03  0.714E-02    1.74       1.0  T
  10    -11.3153406 -0.364946E-04  0.437E-02    1.76       1.0  T
  11    -11.3153413 -0.725591E-06  0.309E-02    1.75       1.0  T
  12    -11.3153441 -0.277044E-05  0.125E-02    1.76       2.3  T
  13    -11.3153445 -0.333871E-06  0.913E-03    1.76       3.2  T
  14    -11.3153455 -0.108989E-05  0.109E-03    1.76      26.4  T
  15    -11.3153455 -0.132665E-08  0.579E-04    1.76      49.8  T
  16    -11.3153455 -0.371320E-08  0.171E-04    1.76     168.5  T
     SCC iter.                  ...        0 min,  0.002 sec
     gradient                   ...        0 min,  0.001 sec
 * total energy  :   -11.0819194 Eh     change        0.1432933E-01 Eh
   gradient norm :     0.2056188 Eh/α   predicted    -0.1950659E-01 (-236.13%)
   displ. norm   :     0.3169301 α      lambda       -0.5856680E-01
   maximum displ.:     0.1814737 α      in ANC's #25, #19, #24, ...

........................................................................
.............................. CYCLE   20 ..............................
........................................................................
   1    -11.2918453 -0.112918E+02  0.122E+00    1.53       0.0  T
   2    -11.2615597  0.302857E-01  0.133E+00    1.74       1.0  T
   3    -11.2699914 -0.843172E-02  0.112E+00    1.50       1.0  T
   4    -11.2872038 -0.172124E-01  0.809E-01    1.46       1.0  T
   5    -11.2957537 -0.854984E-02  0.272E-01    1.60       1.0  T
   6    -11.2959247 -0.171016E-03  0.201E-01    1.61       1.0  T
   7    -11.2954565  0.468227E-03  0.247E-01    1.61       1.0  T
   8    -11.2956098 -0.153349E-03  0.199E-01    1.63       1.0  T
   9    -11.2961445 -0.534663E-03  0.246E-02    1.62       1.2  T
  10    -11.2961458 -0.129400E-05  0.174E-02    1.61       1.7  T
  11    -11.2961472 -0.139971E-05  0.115E-02    1.62       2.5  T
  12    -11.2961481 -0.899630E-06  0.653E-03    1.62       4.4  T
  13    -11.2961487 -0.585038E-06  0.210E-03    1.62      13.8  T
  14    -11.2961487 -0.283396E-08  0.141E-03    1.62      20.5  T
  15    -11.2961487 -0.324832E-07  0.466E-04    1.62      62.0  T
  16    -11.2961487 -0.254108E-08  0.763E-05    1.62     378.2  T
     SCC iter.                  ...        0 min,  0.002 sec
     gradient                   ...        0 min,  0.001 sec
 * total energy  :   -11.1024931 Eh     change       -0.2057377E-01 Eh
   gradient norm :     0.0407600 Eh/α   predicted    -0.3222476E-01 (  56.63%)
   displ. norm   :     0.4618144 α      lambda       -0.8433333E-02
   maximum displ.:     0.1732008 α      in ANC's #2, #3, #5, ...
 * RMSD in coord.:     1.8021729 α      energy gain  -0.5948711E+00 Eh

generating ANC from model Hessian ...
Using Lindh-Hessian (1995)
 Shifting diagonal of input Hessian by    1.0622970006859158E-002
 Lowest  eigenvalues of input Hessian
    0.010000    0.010324    0.010398    0.010523    0.010577    0.010605
    0.000000    0.000000    0.000000    0.000000    0.000000    0.000000
    0.010798    0.011074    0.011355    0.011454    0.012794    0.014138
 Highest eigenvalues
    0.530857    0.554938    0.847535    0.955057    1.182278    1.705991


........................................................................
.............................. CYCLE   21 ..............................
........................................................................
   1    -11.3236310 -0.113236E+02  0.167E+00    1.75       0.0  T
   2    -11.3204330  0.319803E-02  0.111E+00    1.76       1.0  T
   3    -11.1773818  0.143051E+00  0.288E+00    1.78       1.0  T
   4    -11.3207500 -0.143368E+00  0.531E-01    1.73       1.0  T
   5    -11.3194848  0.126521E-02  0.479E-01    1.84       1.0  T
   6    -11.3237051 -0.422036E-02  0.241E-01    1.77       1.0  T
   7    -11.3236879  0.172446E-04  0.213E-01    1.77       1.0  T
   8    -11.3245474 -0.859505E-03  0.765E-02    1.76       1.0  T
   9    -11.3246247 -0.772795E-04  0.290E-02    1.76       1.0  T
  10    -11.3246311 -0.645188E-05  0.175E-02    1.76       1.6  T
  11    -11.3246354 -0.424770E-05  0.547E-03    1.76       5.3  T
  12    -11.3246354 -0.515941E-07  0.247E-03    1.76      11.7  T
  13    -11.3246355 -0.440208E-07  0.144E-03    1.76      20.0  T
  14    -11.3246355 -0.221402E-07  0.245E-04    1.76     117.6  T
  15    -11.3246355  0.100482E-08  0.267E-04    1.76     108.1  T
     SCC iter.                  ...        0 min,  0.003 sec
     gradient                   ...        0 min,  0.001 sec
 * total energy  :   -11.0996097 Eh     change        0.2883476E-02 Eh
   gradient norm :     0.0827354 Eh/α   predicted     0.0000000E+00 (-100.00%)
   displ. norm   :     0.3509987 α      lambda       -0.1069092E-01
   maximum displ.:     0.2200254 α      in ANC's #11, #4, #14, ...

........................................................................
.............................. CYCLE   22 ..............................
........................................................................
   1    -11.3156755 -0.113157E+02  0.514E-01    1.80       0.0  T
   2    -11.3152955  0.379971E-03  0.374E-01    1.78       1.0  T
   3    -11.3036329  0.116626E-01  0.716E-01    1.82       1.0  T
   4    -11.3154846 -0.118518E-01  0.147E-01    1.80       1.0  T
   5    -11.3156987 -0.214076E-03  0.691E-02    1.79       1.0  T
   6    -11.3157164 -0.176951E-04  0.454E-02    1.80       1.0  T
   7    -11.3157167 -0.325964E-06  0.458E-02    1.79       1.0  T
   8    -11.3157513 -0.345944E-04  0.226E-02    1.80       1.3  T
   9    -11.3157566 -0.524901E-05  0.617E-03    1.79       4.7  T
  10    -11.3157566 -0.423911E-07  0.415E-03    1.79       7.0  T
  11    -11.3157568 -0.201262E-06  0.153E-03    1.79      18.9  T
  12    -11.3157568 -0.238517E-07  0.414E-04    1.79      69.7  T
  13    -11.3157568 -0.663809E-09  0.172E-04    1.79     167.6  T
     SCC iter.                  ...        0 min,  0.003 sec
     gradient                   ...        0 min,  0.001 sec
 * total energy  :   -11.1062418 Eh     change       -0.6632134E-02 Eh
   gradient norm :     0.0221604 Eh/α   predicted    -0.6004030E-02 (  -9.47%)
   displ. norm   :     0.3815162 α      lambda       -0.2829370E-02
   maximum displ.:     0.2166664 α      in ANC's #4, #11, #3, ...

........................................................................
.............................. CYCLE   23 ..............................
........................................................................
   1    -11.3080387 -0.113080E+02  0.677E-01    1.77       0.0  T
   2    -11.3079944  0.442763E-04  0.444E-01    1.77       1.0  T
   3    -11.3003807  0.761363E-02  0.595E-01    1.82       1.0  T
   4    -11.3078980 -0.751728E-02  0.112E-01    1.79       1.0  T
   5    -11.3078684  0.295845E-04  0.108E-01    1.76       1.0  T
   6    -11.3080347 -0.166221E-03  0.527E-02    1.77       1.0  T
   7    -11.3080614 -0.267374E-04  0.465E-02    1.78       1.0  T
   8    -11.3080905 -0.291293E-04  0.172E-02    1.78       1.7  T
   9    -11.3080942 -0.366534E-05  0.481E-03    1.78       6.0  T
  10    -11.3080942 -0.514077E-07  0.317E-03    1.78       9.1  T
  11    -11.3080943 -0.363685E-07  0.187E-03    1.78      15.5  T
  12    -11.3080943 -0.252345E-07  0.704E-04    1.78      41.0  T
  13    -11.3080943  0.112342E-08  0.412E-04    1.78      70.2  T
     SCC iter.                  ...        0 min,  0.002 sec
     gradient                   ...        0 min,  0.001 sec
 * total energy  :   -11.1080298 Eh     change       -0.1787994E-02 Eh
   gradient norm :     0.0149851 Eh/α   predicted    -0.1620600E-02 (  -9.36%)
   displ. norm   :     0.3760184 α      lambda       -0.1560627E-02
   maximum displ.:     0.2628692 α      in ANC's #11, #10, #14, ...

........................................................................
.............................. CYCLE   24 ..............................
........................................................................
   1    -11.3089922 -0.113090E+02  0.759E-01    1.78       0.0  T
   2    -11.3089909  0.123595E-05  0.500E-01    1.76       1.0  T
   3    -11.3060223  0.296860E-02  0.406E-01    1.84       1.0  T
   4    -11.3084935 -0.247118E-02  0.171E-01    1.79       1.0  T
   5    -11.3089539 -0.460432E-03  0.883E-02    1.76       1.0  T
   6    -11.3089863 -0.323586E-04  0.557E-02    1.77       1.0  T
   7    -11.3089695  0.168365E-04  0.605E-02    1.77       1.0  T
   8    -11.3090303 -0.608628E-04  0.309E-02    1.77       1.0  T
   9    -11.3090420 -0.117022E-04  0.594E-03    1.77       4.9  T
  10    -11.3090420 -0.213246E-07  0.272E-03    1.77      10.6  T
  11    -11.3090421 -0.307455E-07  0.135E-03    1.77      21.4  T
  12    -11.3090421 -0.725932E-08  0.938E-04    1.77      30.8  T
  13    -11.3090421 -0.249043E-08  0.461E-04    1.77      62.6  T
     SCC iter.                  ...        0 min,  0.003 sec
     gradient                   ...        0 min,  0.001 sec
 * total energy  :   -11.1091281 Eh     change       -0.1098315E-02 Eh
   gradient norm :     0.0098930 Eh/α   predicted    -0.8906379E-03 ( -18.91%)
   displ. norm   :     0.3852483 α      lambda       -0.8791352E-03
   maximum displ.:     0.2283231 α      in ANC's #11, #4, #8, ...

........................................................................
.............................. CYCLE   25 ..............................
........................................................................
   1    -11.3097965 -0.113098E+02  0.789E-01    1.76       0.0  T
   2    -11.3097766  0.198587E-04  0.513E-01    1.75       1.0  T
   3    -11.3045535  0.522315E-02  0.494E-01    1.80       1.0  T
   4    -11.3088548 -0.430138E-02  0.190E-01    1.79       1.0  T
   5    -11.3096206 -0.765741E-03  0.118E-01    1.74       1.0  T
   6    -11.3098492 -0.228569E-03  0.567E-02    1.76       1.0  T
   7    -11.3098291  0.200526E-04  0.594E-02    1.76       1.0  T
   8    -11.3098733 -0.442292E-04  0.289E-02    1.76       1.0  T
   9    -11.3098822 -0.882221E-05  0.823E-03    1.77       3.5  T
  10    -11.3098829 -0.772390E-06  0.553E-03    1.76       5.2  T
  11    -11.3098831 -0.207842E-06  0.258E-03    1.76      11.2  T
  12    -11.3098832 -0.567059E-07  0.967E-04    1.76      29.9  T
  13    -11.3098832  0.972344E-09  0.541E-04    1.76      53.4  T
     SCC iter.                  ...        0 min,  0.002 sec
     gradient                   ...        0 min,  0.001 sec
 * total energy  :   -11.1097483 Eh     change       -0.6202561E-03 Eh
   gradient norm :     0.0105146 Eh/α   predicted    -0.5048051E-03 ( -18.61%)
   displ. norm   :     0.3123304 α      lambda       -0.5196396E-03
   maximum displ.:     0.1878770 α      in ANC's #11, #4, #8, ...

........................................................................
.............................. CYCLE   26 ..............................
........................................................................
   1    -11.3114024 -0.113114E+02  0.594E-01    1.73       0.0  T
   2    -11.3113444  0.580029E-04  0.389E-01    1.72       1.0  T
   3    -11.3051130  0.623139E-02  0.526E-01    1.76       1.0  T
   4    -11.3107748 -0.566175E-02  0.177E-01    1.77       1.0  T
   5    -11.3113523 -0.577560E-03  0.907E-02    1.72       1.0  T
   6    -11.3114660 -0.113625E-03  0.459E-02    1.74       1.0  T
   7    -11.3114737 -0.771229E-05  0.259E-02    1.74       1.1  T
   8    -11.3114539  0.197495E-04  0.373E-02    1.74       1.0  T
   9    -11.3114811 -0.271986E-04  0.589E-03    1.74       4.9  T
  10    -11.3114815 -0.337803E-06  0.369E-03    1.74       7.8  T
  11    -11.3114815 -0.596005E-07  0.160E-03    1.74      18.0  T
  12    -11.3114815 -0.117494E-07  0.612E-04    1.74      47.2  T
  13    -11.3114815  0.788051E-09  0.314E-04    1.74      92.0  T
     SCC iter.                  ...        0 min,  0.002 sec
     gradient                   ...        0 min,  0.002 sec
 * total energy  :   -11.1101137 Eh     change       -0.3653585E-03 Eh
   gradient norm :     0.0077755 Eh/α   predicted    -0.2851651E-03 ( -21.95%)
   displ. norm   :     0.2964466 α      lambda       -0.3907476E-03
   maximum displ.:     0.1399701 α      in ANC's #11, #4, #8, ...

........................................................................
.............................. CYCLE   27 ..............................
........................................................................
   1    -11.3137735 -0.113138E+02  0.547E-01    1.71       0.0  T
   2    -11.3137191  0.544139E-04  0.357E-01    1.70       1.0  T
   3    -11.3064878  0.723122E-02  0.537E-01    1.71       1.0  T
   4    -11.3136484 -0.716051E-02  0.102E-01    1.73       1.0  T
   5    -11.3137631 -0.114735E-03  0.701E-02    1.69       1.0  T
   6    -11.3138136 -0.505510E-04  0.463E-02    1.71       1.0  T
   7    -11.3138294 -0.157934E-04  0.250E-02    1.71       1.2  T
   8    -11.3138204  0.904781E-05  0.292E-02    1.71       1.0  T
   9    -11.3138372 -0.168482E-04  0.407E-03    1.71       7.1  T
  10    -11.3138372  0.526324E-07  0.347E-03    1.71       8.3  T
  11    -11.3138373 -0.894600E-07  0.143E-03    1.71      20.2  T
  12    -11.3138373 -0.992992E-08  0.551E-04    1.71      52.4  T
  13    -11.3138373  0.420158E-09  0.246E-04    1.71     117.1  T
     SCC iter.                  ...        0 min,  0.003 sec
     gradient                   ...        0 min,  0.001 sec
 * total energy  :   -11.1103423 Eh     change       -0.2286202E-03 Eh
   gradient norm :     0.0059511 Eh/α   predicted    -0.2125429E-03 (  -7.03%)
   displ. norm   :     0.2414445 α      lambda       -0.2632333E-03
   maximum displ.:     0.1041897 α      in ANC's #11, #4, #13, ...

........................................................................
.............................. CYCLE   28 ..............................
........................................................................
   1    -11.3115771 -0.113116E+02  0.479E-01    1.68       0.0  T
   2    -11.3115838 -0.675082E-05  0.310E-01    1.68       1.0  T
   3    -11.3093657  0.221812E-02  0.331E-01    1.68       1.0  T
   4    -11.3114106 -0.204492E-02  0.111E-01    1.69       1.0  T
   5    -11.3115896 -0.178998E-03  0.501E-02    1.68       1.0  T
   6    -11.3115555  0.341070E-04  0.502E-02    1.68       1.0  T
   7    -11.3116172 -0.616846E-04  0.152E-02    1.68       1.9  T
   8    -11.3116156  0.159982E-05  0.144E-02    1.69       2.0  T
   9    -11.3116182 -0.255084E-05  0.409E-03    1.68       7.1  T
  10    -11.3116182 -0.154397E-07  0.320E-03    1.68       9.0  T
  11    -11.3116183 -0.933788E-07  0.124E-03    1.68      23.2  T
  12    -11.3116183 -0.860629E-08  0.582E-04    1.68      49.6  T
  13    -11.3116183 -0.222485E-08  0.176E-04    1.68     163.9  T
     SCC iter.                  ...        0 min,  0.003 sec
     gradient                   ...        0 min,  0.001 sec
 * total energy  :   -11.1104335 Eh     change       -0.9114361E-04 Eh
   gradient norm :     0.0075801 Eh/α   predicted    -0.1392908E-03 (  52.83%)
   displ. norm   :     0.0550810 α      lambda       -0.1450076E-03
   maximum displ.:     0.0239979 α      in ANC's #3, #11, #10, ...

........................................................................
.............................. CYCLE   29 ..............................
........................................................................
   1    -11.3142787 -0.113143E+02  0.139E-01    1.67       0.0  T
   2    -11.3142777  0.104065E-05  0.872E-02    1.67       1.0  T
   3    -11.3140380  0.239686E-03  0.112E-01    1.67       1.0  T
   4    -11.3142442 -0.206267E-03  0.390E-02    1.67       1.0  T
   5    -11.3142664 -0.221255E-04  0.272E-02    1.68       1.1  T
   6    -11.3142818 -0.154835E-04  0.129E-02    1.67       2.2  T
   7    -11.3142834 -0.151597E-05  0.960E-03    1.67       3.0  T
   8    -11.3142843 -0.959495E-06  0.535E-03    1.67       5.4  T
   9    -11.3142845 -0.166560E-06  0.240E-03    1.67      12.0  T
  10    -11.3142845 -0.468131E-07  0.171E-03    1.67      16.8  T
  11    -11.3142846 -0.236078E-07  0.561E-04    1.67      51.4  T
  12    -11.3142846 -0.516335E-08  0.196E-04    1.67     147.5  T
     SCC iter.                  ...        0 min,  0.002 sec
     gradient                   ...        0 min,  0.001 sec
 * total energy  :   -11.1105022 Eh     change       -0.6868837E-04 Eh
   gradient norm :     0.0042088 Eh/α   predicted    -0.7272508E-04 (   5.88%)
   displ. norm   :     0.0762773 α      lambda       -0.1082067E-03
   maximum displ.:     0.0403753 α      in ANC's #5, #8, #10, ...

........................................................................
.............................. CYCLE   30 ..............................
........................................................................
   1    -11.3133062 -0.113133E+02  0.193E-01    1.66       0.0  T
   2    -11.3133148 -0.855661E-05  0.118E-01    1.67       1.0  T
   3    -11.3130635  0.251225E-03  0.115E-01    1.67       1.0  T
   4    -11.3132283 -0.164701E-03  0.612E-02    1.67       1.0  T
   5    -11.3132854 -0.571462E-04  0.422E-02    1.67       1.0  T
   6    -11.3133198 -0.343848E-04  0.133E-02    1.66       2.2  T
   7    -11.3133218 -0.198107E-05  0.930E-03    1.67       3.1  T
   8    -11.3133206  0.116792E-05  0.113E-02    1.67       2.6  T
   9    -11.3133227 -0.213992E-05  0.235E-03    1.67      12.3  T
  10    -11.3133228 -0.460613E-07  0.162E-03    1.67      17.8  T
  11    -11.3133228 -0.147012E-07  0.727E-04    1.67      39.7  T
  12    -11.3133228 -0.753571E-08  0.282E-04    1.67     102.5  T
     SCC iter.                  ...        0 min,  0.002 sec
     gradient                   ...        0 min,  0.001 sec
 * total energy  :   -11.1105562 Eh     change       -0.5407113E-04 Eh
   gradient norm :     0.0039401 Eh/α   predicted    -0.5441662E-04 (   0.64%)
   displ. norm   :     0.1455111 α      lambda       -0.1507357E-03
   maximum displ.:     0.0619824 α      in ANC's #8, #5, #15, ...

........................................................................
.............................. CYCLE   31 ..............................
........................................................................
   1    -11.3123251 -0.113123E+02  0.404E-01    1.65       0.0  T
   2    -11.3123516 -0.265379E-04  0.254E-01    1.65       1.0  T
   3    -11.3105121  0.183952E-02  0.267E-01    1.68       1.0  T
   4    -11.3118614 -0.134936E-02  0.144E-01    1.66       1.0  T
   5    -11.3123443 -0.482805E-03  0.567E-02    1.65       1.0  T
   6    -11.3123332  0.110072E-04  0.554E-02    1.66       1.0  T
   7    -11.3123859 -0.526974E-04  0.221E-02    1.66       1.3  T
   8    -11.3123880 -0.209284E-05  0.168E-02    1.67       1.7  T
   9    -11.3123915 -0.350014E-05  0.534E-03    1.66       5.4  T
  10    -11.3123918 -0.243422E-06  0.360E-03    1.66       8.0  T
  11    -11.3123918  0.191134E-07  0.245E-03    1.66      11.8  T
  12    -11.3123919 -0.968412E-07  0.648E-04    1.66      44.5  T
  13    -11.3123919 -0.399663E-09  0.197E-04    1.66     146.9  T
     SCC iter.                  ...        0 min,  0.003 sec
     gradient                   ...        0 min,  0.001 sec
 * total energy  :   -11.1106667 Eh     change       -0.1104615E-03 Eh
   gradient norm :     0.0037939 Eh/α   predicted    -0.7696395E-04 ( -30.33%)
   displ. norm   :     0.3974372 α      lambda       -0.3715501E-03
   maximum displ.:     0.1666013 α      in ANC's #5, #15, #9, ...

........................................................................
.............................. CYCLE   32 ..............................
........................................................................
   1    -11.3094349 -0.113094E+02  0.113E+00    1.62       0.0  T
   2    -11.3095730 -0.138164E-03  0.711E-01    1.62       1.0  T
   3    -11.2888773  0.206958E-01  0.916E-01    1.64       1.0  T
   4    -11.3059355 -0.170583E-01  0.423E-01    1.64       1.0  T
   5    -11.3094145 -0.347899E-02  0.206E-01    1.62       1.0  T
   6    -11.3094887 -0.741248E-04  0.179E-01    1.63       1.0  T
   7    -11.3100407 -0.551989E-03  0.714E-02    1.64       1.0  T
   8    -11.3100709 -0.302666E-04  0.583E-02    1.66       1.0  T
   9    -11.3101080 -0.370568E-04  0.243E-02    1.64       1.2  T
  10    -11.3101125 -0.455333E-05  0.117E-02    1.64       2.5  T
  11    -11.3101128 -0.293509E-06  0.856E-03    1.64       3.4  T
  12    -11.3101140 -0.118580E-05  0.245E-03    1.64      11.8  T
  13    -11.3101140  0.528546E-08  0.133E-03    1.64      21.8  T
  14    -11.3101140 -0.309167E-07  0.331E-04    1.64      87.2  T
  15    -11.3101140 -0.521045E-09  0.587E-05    1.64     491.8  T
     SCC iter.                  ...        0 min,  0.017 sec
     gradient                   ...        0 min,  0.001 sec
 * total energy  :   -11.1109858 Eh     change       -0.3190882E-03 Eh
   gradient norm :     0.0116473 Eh/α   predicted    -0.2151135E-03 ( -32.58%)
   displ. norm   :     0.6193953 α      lambda       -0.7894248E-03
   maximum displ.:     0.2762898 α      in ANC's #9, #5, #15, ...

........................................................................
.............................. CYCLE   33 ..............................
........................................................................
   1    -11.3049332 -0.113049E+02  0.184E+00    1.53       0.0  T
   2    -11.3034753  0.145786E-02  0.116E+00    1.60       1.0  T
   3    -11.2203332  0.831422E-01  0.203E+00    1.36       1.0  T
   4    -11.3034371 -0.831039E-01  0.553E-01    1.57       1.0  T
   5    -11.3007063  0.273076E-02  0.568E-01    1.63       1.0  T
   6    -11.3061573 -0.545096E-02  0.277E-01    1.57       1.0  T
   7    -11.3072950 -0.113777E-02  0.145E-01    1.58       1.0  T
   8    -11.3074868 -0.191755E-03  0.106E-01    1.62       1.0  T
   9    -11.3076184 -0.131644E-03  0.398E-02    1.59       1.0  T
  10    -11.3076315 -0.131105E-04  0.207E-02    1.59       1.4  T
  11    -11.3076369 -0.537996E-05  0.812E-03    1.59       3.6  T
  12    -11.3076375 -0.560256E-06  0.398E-03    1.59       7.3  T
  13    -11.3076376 -0.145158E-06  0.222E-03    1.59      13.0  T
  14    -11.3076376 -0.802785E-08  0.738E-04    1.59      39.1  T
  15    -11.3076376 -0.407216E-08  0.161E-04    1.59     179.1  T
     SCC iter.                  ...        0 min,  0.003 sec
     gradient                   ...        0 min,  0.001 sec
 * total energy  :   -11.1109865 Eh     change       -0.6909064E-06 Eh
   gradient norm :     0.0240678 Eh/α   predicted    -0.5461529E-03 (*******%)
   displ. norm   :     0.2964781 α      lambda       -0.1842781E-02
   maximum displ.:     0.1549501 α      in ANC's #8, #4, #5, ...

........................................................................
.............................. CYCLE   34 ..............................
........................................................................
   1    -11.3158933 -0.113159E+02  0.697E-01    1.60       0.0  T
   2    -11.3157623  0.130998E-03  0.462E-01    1.58       1.0  T
   3    -11.3034278  0.123345E-01  0.742E-01    1.63       1.0  T
   4    -11.3155025 -0.120747E-01  0.158E-01    1.60       1.0  T
   5    -11.3157251 -0.222556E-03  0.108E-01    1.57       1.0  T
   6    -11.3158854 -0.160352E-03  0.614E-02    1.58       1.0  T
   7    -11.3159036 -0.181754E-04  0.560E-02    1.59       1.0  T
   8    -11.3159581 -0.545382E-04  0.153E-02    1.59       1.9  T
   9    -11.3159604 -0.222976E-05  0.871E-03    1.59       3.3  T
  10    -11.3159610 -0.665232E-06  0.253E-03    1.59      11.4  T
  11    -11.3159611 -0.516439E-07  0.108E-03    1.59      26.8  T
  12    -11.3159611 -0.475098E-08  0.605E-04    1.59      47.7  T
  13    -11.3159611 -0.317275E-08  0.352E-04    1.59      81.9  T
     SCC iter.                  ...        0 min,  0.004 sec
     gradient                   ...        0 min,  0.001 sec
 * total energy  :   -11.1118487 Eh     change       -0.8621831E-03 Eh
   gradient norm :     0.0132134 Eh/α   predicted    -0.1002379E-02 (  16.26%)
   displ. norm   :     0.1653080 α      lambda       -0.7519413E-03
   maximum displ.:     0.0792454 α      in ANC's #5, #9, #6, ...

........................................................................
.............................. CYCLE   35 ..............................
........................................................................
   1    -11.3143438 -0.113143E+02  0.465E-01    1.50       0.0  T
   2    -11.3144696 -0.125851E-03  0.278E-01    1.55       1.0  T
   3    -11.3119916  0.247806E-02  0.431E-01    1.50       1.0  T
   4    -11.3144810 -0.248946E-02  0.162E-01    1.52       1.0  T
   5    -11.3143216  0.159445E-03  0.149E-01    1.55       1.0  T
   6    -11.3147784 -0.456846E-03  0.284E-02    1.53       1.0  T
   7    -11.3147457  0.327425E-04  0.422E-02    1.53       1.0  T
   8    -11.3147868 -0.410907E-04  0.115E-02    1.53       2.5  T
   9    -11.3147873 -0.490995E-06  0.768E-03    1.53       3.8  T
  10    -11.3147880 -0.755734E-06  0.427E-03    1.53       6.8  T
  11    -11.3147882 -0.160315E-06  0.213E-03    1.53      13.5  T
  12    -11.3147882 -0.651659E-07  0.738E-04    1.53      39.1  T
  13    -11.3147882 -0.691303E-09  0.463E-04    1.53      62.3  T
     SCC iter.                  ...        0 min,  0.003 sec
     gradient                   ...        0 min,  0.000 sec
 * total energy  :   -11.1124316 Eh     change       -0.5829819E-03 Eh
   gradient norm :     0.0118361 Eh/α   predicted    -0.3862453E-03 ( -33.75%)
   displ. norm   :     0.4394758 α      lambda       -0.1690934E-02
   maximum displ.:     0.2338612 α      in ANC's #5, #9, #21, ...

........................................................................
.............................. CYCLE   36 ..............................
........................................................................
   1    -11.3100788 -0.113101E+02  0.148E+00    1.36       0.0  T
   2    -11.3062418  0.383699E-02  0.102E+00    1.49       1.0  T
   3    -11.2792626  0.269793E-01  0.154E+00    1.32       1.0  T
   4    -11.3128302 -0.335676E-01  0.534E-01    1.40       1.0  T
   5    -11.3107389  0.209129E-02  0.476E-01    1.49       1.0  T
   6    -11.3149143 -0.417533E-02  0.117E-01    1.44       1.0  T
   7    -11.3149372 -0.229647E-04  0.796E-02    1.45       1.0  T
   8    -11.3149496 -0.123409E-04  0.562E-02    1.44       1.0  T
   9    -11.3149979 -0.482917E-04  0.418E-02    1.44       1.0  T
  10    -11.3150346 -0.367035E-04  0.152E-02    1.44       1.9  T
  11    -11.3150358 -0.122532E-05  0.935E-03    1.44       3.1  T
  12    -11.3150372 -0.138405E-05  0.332E-03    1.44       8.7  T
  13    -11.3150371  0.213523E-07  0.318E-03    1.44       9.1  T
  14    -11.3150373 -0.161859E-06  0.401E-04    1.44      72.1  T
  15    -11.3150373  0.103632E-08  0.330E-04    1.44      87.6  T
     SCC iter.                  ...        0 min,  0.003 sec
     gradient                   ...        0 min,  0.001 sec
 * total energy  :   -11.1130497 Eh     change       -0.6180628E-03 Eh
   gradient norm :     0.0207549 Eh/α   predicted    -0.1008758E-02 (  63.21%)
   displ. norm   :     0.2486046 α      lambda       -0.1401721E-02
   maximum displ.:     0.1513397 α      in ANC's #9, #16, #17, ...

........................................................................
.............................. CYCLE   37 ..............................
........................................................................
   1    -11.3102300 -0.113102E+02  0.672E-01    1.48       0.0  T
   2    -11.3100642  0.165750E-03  0.423E-01    1.46       1.0  T
   3    -11.2963932  0.136711E-01  0.744E-01    1.46       1.0  T
   4    -11.3098970 -0.135039E-01  0.151E-01    1.46       1.0  T
   5    -11.3101988 -0.301798E-03  0.801E-02    1.46       1.0  T
   6    -11.3102106 -0.117303E-04  0.766E-02    1.47       1.0  T
   7    -11.3102829 -0.723242E-04  0.416E-02    1.47       1.0  T
   8    -11.3102918 -0.887223E-05  0.194E-02    1.46       1.5  T
   9    -11.3102958 -0.398755E-05  0.140E-02    1.47       2.1  T
  10    -11.3102971 -0.133694E-05  0.849E-03    1.46       3.4  T
  11    -11.3102982 -0.109057E-05  0.265E-03    1.46      10.9  T
  12    -11.3102983 -0.841300E-07  0.134E-03    1.46      21.6  T
  13    -11.3102983 -0.269133E-08  0.372E-04    1.46      77.5  T
  14    -11.3102983 -0.254841E-09  0.187E-04    1.46     154.4  T
     SCC iter.                  ...        0 min,  0.003 sec
     gradient                   ...        0 min,  0.001 sec
 * total energy  :   -11.1135141 Eh     change       -0.4643950E-03 Eh
   gradient norm :     0.0177527 Eh/α   predicted    -0.7441767E-03 (  60.25%)
   displ. norm   :     0.2708663 α      lambda       -0.1189007E-02
[...]
   maximum displ.:     0.0160371 α      in ANC's #8, #2, #5, ...

........................................................................
.............................. CYCLE  123 ..............................
........................................................................
   1    -11.4385094 -0.114385E+02  0.667E-02    3.35       0.0  T
   2    -11.4385087  0.646721E-06  0.419E-02    3.35       1.0  T
   3    -11.4384503  0.584718E-04  0.481E-02    3.35       1.0  T
   4    -11.4385088 -0.585561E-04  0.899E-03    3.35       3.2  T
   5    -11.4385088  0.876895E-08  0.770E-03    3.35       3.7  T
   6    -11.4385079  0.898841E-06  0.816E-03    3.35       3.5  T
   7    -11.4385095 -0.158859E-05  0.319E-03    3.35       9.1  T
   8    -11.4385097 -0.148077E-06  0.107E-03    3.35      27.1  T
   9    -11.4385097 -0.499685E-08  0.838E-04    3.35      34.4  T
  10    -11.4385097 -0.423037E-08  0.236E-04    3.35     122.3  T
     SCC iter.                  ...        0 min,  0.002 sec
     gradient                   ...        0 min,  0.001 sec
 * total energy  :   -11.2229960 Eh     change       -0.3438168E-05 Eh
   gradient norm :     0.0004165 Eh/α   predicted    -0.1353418E-05 ( -60.64%)
   displ. norm   :     0.0593922 α      lambda       -0.5047487E-05
   maximum displ.:     0.0364202 α      in ANC's #8, #2, #5, ...

   *** GEOMETRY OPTIMIZATION CONVERGED AFTER 123 ITERATIONS ***

------------------------------------------------------------------------
 total energy gain   :        -0.7153740 Eh     -448.9039 kcal/mol
 total RMSD          :         3.0700085 a0        1.6246 Å
 total power (kW/mol):       -15.2700334 (step)-4206.2991 (real)
------------------------------------------------------------------------

 ANCopt (total)                0 d,  0 h,  0 min,  0.447 sec
 optimizer setup                ...        0 min,  0.000 sec (  0.010%)
 model hessian                  ...        0 min,  0.002 sec (  0.424%)
 ANC generation                 ...        0 min,  0.001 sec (  0.121%)
 coordinate transformation      ...        0 min,  0.000 sec (  0.082%)
 single point calculation       ...        0 min,  0.432 sec ( 96.768%)
 optimization log               ...        0 min,  0.004 sec (  0.823%)
 hessian update                 ...        0 min,  0.003 sec (  0.744%)
 rational function              ...        0 min,  0.003 sec (  0.579%)

================
 final structure:
================
12
 xtb: 6.5.1 (conda-forge)
Be           1.29241831771716        1.40917573179594        1.99943651433982
Be           2.61841806509009        0.14946389081202        1.49535190753410
Be           0.97979780209300        3.18474109111494        1.40642502435668
C            2.97880848810041        1.51125022818197        0.61678411189126
C            2.33570936738595        2.69393580066417        0.58411567874092
C            3.18867027244102        2.42451071541913        1.79494685137395
H            2.70418419602284        2.18478160406293        2.77232715632653
H            4.13084048358081        2.94436797954385        1.97537475641494
H            2.27662915012264        4.36818341495567        4.31742384950376
H            2.77342226652719        4.95606989686306        4.44029606314678
H            1.02589637785485        1.63434836817675        5.64795416380270
H            0.92040521305671        1.51995627842032        4.87706392251533

 Bond Distances (Angstroems)
 ---------------------------
Be1-Be2=1.8972       Be1-Be3=1.8979       Be1-C4=2.1831        Be1-C5=2.1777        Be1-C6=2.1607        Be2-Be1=1.8972       
Be2-C4=1.6602        Be3-Be1=1.8979       Be3-C5=1.6600        C4-Be1=2.1831        C4-Be2=1.6602        C4-C5=1.3466         
C4-C6=1.5054         C5-Be1=2.1777        C5-Be3=1.6600        C5-C4=1.3466         C5-C6=1.5054         C6-Be1=2.1607        
C6-C4=1.5054         C6-C5=1.5054         C6-H7=1.1169         C6-H8=1.0911         H7-C6=1.1169         H8-C6=1.0911         
H9-H10=0.7794        H10-H9=0.7794        H11-H12=0.7864       H12-H11=0.7864       
 H  H  Rav=0.7829 sigma=0.0035  Rmin=0.7794  Rmax=0.7864     2
 Be Be Rav=1.8975 sigma=0.0004  Rmin=1.8972  Rmax=1.8979     2
 C  H  Rav=1.1040 sigma=0.0129  Rmin=1.0911  Rmax=1.1169     2
 C  Be Rav=1.9683 sigma=0.2518  Rmin=1.6600  Rmax=2.1831     5
 C  C  Rav=1.4525 sigma=0.0748  Rmin=1.3466  Rmax=1.5054     3

 selected bond angles (degree)
 --------------------
Be3-Be1-Be2=130.79             C4-Be1-Be2= 47.38              C4-Be1-Be3= 83.43              C5-Be1-Be2= 83.35              
C5-Be1-Be3= 47.46              C5-Be1-C4= 35.97               C6-Be1-Be2= 70.94              C6-Be1-Be3= 71.06              
C6-Be1-C4= 40.55               C6-Be1-C5= 40.61               C4-Be2-Be1= 75.39              C5-Be3-Be1= 75.15              
Be2-C4-Be1= 57.23              C5-C4-Be1= 71.79               C5-C4-Be2=129.02               C6-C4-Be1= 68.92               
C6-C4-Be2= 96.53               C6-C4-C5= 63.43                Be3-C5-Be1= 57.39              C4-C5-Be1= 72.23               
C4-C5-Be3=129.62               C6-C5-Be1= 69.09               C6-C5-Be3= 96.74               C6-C5-C4= 63.43                
C4-C6-Be1= 70.53               C5-C6-Be1= 70.30               C5-C6-C4= 53.14                H7-C6-Be1= 55.64               
H7-C6-C4=119.62                H7-C6-C5=119.77                H8-C6-Be1=165.03               H8-C6-C4=122.61                
H8-C6-C5=122.48                H8-C6-H7=109.40                

 selected dihedral angles (degree)
 ---------------------------------
C4-Be2-Be1-Be3=  2.02         C4-Be2-Be1-C5=  0.56          C4-Be2-Be1-C6=320.77          C5-Be3-Be1-Be2=358.02         
C5-Be3-Be1-C4=359.52          C5-Be3-Be1-C6= 39.24          C5-C4-Be2-Be1=358.85          C6-C4-Be2-Be1= 59.73          
C4-C5-Be3-Be1=  1.00          C6-C5-Be3-Be1=300.14          Be1-C5-C4-Be2=  1.02          Be1-C5-C4-C6=285.00           
Be3-C5-C4-Be1=359.11          Be3-C5-C4-Be2=  0.13          Be3-C5-C4-C6=284.11           C6-C5-C4-Be1= 75.00           
C6-C5-C4-Be2= 76.02           C4-C6-Be1-Be2= 45.72          C4-C6-Be1-Be3=257.58          C4-C6-Be1-C5=303.32           
C5-C6-Be1-Be2=102.40          C5-C6-Be1-Be3=314.26          C5-C6-Be1-C4= 56.68           H7-C6-Be1-Be2=254.47          
H7-C6-Be1-Be3=106.33          H7-C6-Be1-C4=208.75           H7-C6-Be1-C5=152.07           H8-C6-Be1-Be2=252.79          
H8-C6-Be1-Be3=104.65          H8-C6-Be1-C4=207.08           H8-C6-Be1-C5=150.39           Be1-C6-C4-Be2=308.90          
Be1-C6-C4-C5= 79.53           C5-C6-C4-Be1=280.47           C5-C6-C4-Be2=229.36           H7-C6-C4-Be1= 27.18           
H7-C6-C4-Be2=336.08           H7-C6-C4-C5=106.71            H8-C6-C4-Be1=171.98           H8-C6-C4-Be2=120.87           
H8-C6-C4-C5=251.51            Be1-C6-C5-Be3= 51.25          Be1-C6-C5-C4=280.03           C4-C6-C5-Be1= 79.97           
C4-C6-C5-Be3=131.22           H7-C6-C5-Be1=333.55           H7-C6-C5-Be3= 24.80           H7-C6-C5-C4=253.58            
H8-C6-C5-Be1=188.70           H8-C6-C5-Be3=239.95           H8-C6-C5-C4=108.73            

 CMA Distance (Angstroems)
 ---------------------------
R(CMA):  1.4867
           -------------------------------------------------
          |                Final Singlepoint                |
           -------------------------------------------------

          ...................................................
          :                      SETUP                      :
          :.................................................:
          :  # basis functions                  30          :
          :  # atomic orbitals                  30          :
          :  # shells                           18          :
          :  # electrons                        24          :
          :  max. iterations                   250          :
          :  Hamiltonian                  GFN2-xTB          :
          :  restarted?                      false          :
          :  GBSA solvation                  false          :
          :  PC potential                    false          :
          :  electronic temp.          300.0000000     K    :
          :  accuracy                    1.0000000          :
          :  -> integral cutoff          0.2500000E+02      :
          :  -> integral neglect         0.1000000E-07      :
          :  -> SCF convergence          0.1000000E-05 Eh   :
          :  -> wf. convergence          0.1000000E-03 e    :
          :  Broyden damping             0.4000000          :
          ...................................................

 iter      E             dE          RMSdq      gap      omega  full diag
   1    -11.4385097 -0.114385E+02  0.142E-04    3.35       0.0  T
   2    -11.4385097  0.622077E-09  0.166E-04    3.35     174.1  T
   3    -11.4385097 -0.358366E-09  0.133E-04    3.35     216.2  T

   *** convergence criteria satisfied after 3 iterations ***

         #    Occupation            Energy/Eh            Energy/eV
      -------------------------------------------------------------
         1        2.0000           -0.5703172             -15.5191
       ...           ...                  ...                  ...
         6        2.0000           -0.4297544             -11.6942
         7        2.0000           -0.3813251             -10.3764
         8        2.0000           -0.3369322              -9.1684
         9        2.0000           -0.3014451              -8.2027
        10        2.0000           -0.3011029              -8.1934
        11        2.0000           -0.2859184              -7.7802
        12        2.0000           -0.2776578              -7.5555 (HOMO)
        13                         -0.1545673              -4.2060 (LUMO)
        14                         -0.1483819              -4.0377
        15                         -0.1172163              -3.1896
        16                         -0.0994297              -2.7056
        17                         -0.0756452              -2.0584
       ...                                ...                  ...
        30                          2.0278646              55.1810
      -------------------------------------------------------------
                  HL-Gap            0.1230906 Eh            3.3495 eV
             Fermi-level           -0.2161126 Eh           -5.8807 eV

 SCC (total)                   0 d,  0 h,  0 min,  0.001 sec
 SCC setup                      ...        0 min,  0.000 sec (  4.870%)
 Dispersion                     ...        0 min,  0.000 sec (  7.010%)
 classical contributions        ...        0 min,  0.000 sec (  2.915%)
 integral evaluation            ...        0 min,  0.000 sec ( 10.111%)
 iterations                     ...        0 min,  0.000 sec ( 33.215%)
 molecular gradient             ...        0 min,  0.001 sec ( 39.366%)
 printout                       ...        0 min,  0.000 sec (  1.837%)

         :::::::::::::::::::::::::::::::::::::::::::::::::::::
         ::                     SUMMARY                     ::
         :::::::::::::::::::::::::::::::::::::::::::::::::::::
         :: total energy             -11.222995965152 Eh    ::
         :: gradient norm              0.000416005646 Eh/a0 ::
         :: HOMO-LUMO gap              3.349464723350 eV    ::
         ::.................................................::
         :: SCC energy               -11.438509664217 Eh    ::
         :: -> isotropic ES           -0.069428630412 Eh    ::
         :: -> anisotropic ES         -0.009595698021 Eh    ::
         :: -> anisotropic XC         -0.044712431504 Eh    ::
         :: -> dispersion             -0.005923412811 Eh    ::
         :: repulsion energy           0.215500472469 Eh    ::
         :: add. restraining           0.000000000000 Eh    ::
         :: total charge               0.000000000000 e     ::
         :::::::::::::::::::::::::::::::::::::::::::::::::::::

           -------------------------------------------------
          |                Property Printout                |
           -------------------------------------------------

    * Orbital Energies and Occupations

         #    Occupation            Energy/Eh            Energy/eV
      -------------------------------------------------------------
         1        2.0000           -0.5703172             -15.5191
         2        2.0000           -0.5076793             -13.8147
         3        2.0000           -0.4730128             -12.8713
         4        2.0000           -0.4678595             -12.7311
         5        2.0000           -0.4541694             -12.3586
         6        2.0000           -0.4297544             -11.6942
         7        2.0000           -0.3813251             -10.3764
         8        2.0000           -0.3369322              -9.1684
         9        2.0000           -0.3014451              -8.2027
        10        2.0000           -0.3011029              -8.1934
        11        2.0000           -0.2859184              -7.7802
        12        2.0000           -0.2776578              -7.5555 (HOMO)
        13                         -0.1545673              -4.2060 (LUMO)
        14                         -0.1483819              -4.0377
        15                         -0.1172163              -3.1896
        16                         -0.0994297              -2.7056
        17                         -0.0756452              -2.0584
        18                          0.0212343               0.5778
        19                          0.0667144               1.8154
        20                          0.0676368               1.8405
        21                          0.1258155               3.4236
        22                          0.1611469               4.3850
        23                          0.1861053               5.0642
       ...                                ...                  ...
        30                          2.0278646              55.1810
      -------------------------------------------------------------
                  HL-Gap            0.1230906 Eh            3.3495 eV
             Fermi-level           -0.2161126 Eh           -5.8807 eV

     #   Z          covCN         q      C6AA      α(0)
     1   4 Be       3.809     0.303    15.733     9.157
     2   4 Be       2.083     0.327    15.467     9.081
     3   4 Be       2.077     0.329    15.452     9.077
     4   6 C        3.341    -0.313    33.393     9.136
     5   6 C        3.350    -0.313    33.161     9.075
     6   6 C        4.864    -0.032    21.051     6.516
     7   1 H        1.144    -0.186     9.776     4.882
     8   1 H        0.924    -0.097     5.462     3.655
     9   1 H        0.805    -0.003     3.171     2.797
    10   1 H        0.805    -0.000     3.118     2.774
    11   1 H        0.782    -0.000     3.140     2.788
    12   1 H        0.782    -0.013     3.372     2.889

 Mol. C6AA /au·bohr⁶  :       1555.773744
 Mol. C8AA /au·bohr⁸  :      41131.907299
 Mol. α(0) /au        :         71.825936


Wiberg/Mayer (AO) data.
largest (>0.10) Wiberg bond orders for each atom

 ---------------------------------------------------------------------------
     #   Z sym  total        # sym  WBO       # sym  WBO       # sym  WBO
 ---------------------------------------------------------------------------
     1   4 Be   1.956 --     2 Be   0.901     3 Be   0.899
     2   4 Be   1.950 --     1 Be   0.901     4 C    0.805
     3   4 Be   1.952 --     1 Be   0.899     5 C    0.806
     4   6 C    3.626 --     5 C    1.687     6 C    0.940     2 Be   0.805
     5   6 C    3.627 --     4 C    1.687     6 C    0.940     3 Be   0.806
     6   6 C    3.883 --     8 H    0.953     5 C    0.940     4 C    0.940
                             7 H    0.933
Note: The following floating-point exceptions are signalling: IEEE_UNDERFLOW_FLAG
normal termination of xtb
     7   1 H    0.965 --     6 C    0.933
     8   1 H    0.991 --     6 C    0.953
     9   1 H    1.000 --    10 H    0.996
    10   1 H    1.000 --     9 H    0.996
    11   1 H    0.997 --    12 H    0.986
    12   1 H    1.000 --    11 H    0.986
 ---------------------------------------------------------------------------

Topologies differ in total number of bonds
Writing topology from bond orders to xtbtopo.mol

molecular dipole:
                 x           y           z       tot (Debye)
 q only:       -2.119      -1.138       0.631
   full:        0.448       0.268       0.494       1.826
molecular quadrupole (traceless):
                xx          xy          yy          xz          yz          zz
 q only:      -15.328     -22.821       4.628      -5.118      -2.085      10.699
  q+dip:       -2.877      -5.854       8.490       7.483       4.464      -5.613
   full:       -1.595      -3.444       6.209       9.945       5.876      -4.614

           -------------------------------------------------
          |                Geometry Summary                 |
           -------------------------------------------------

      molecular mass/u    :       69.1164014
   center of mass at/Å    :        2.3170486       2.0273522       1.5101224
  moments of inertia/u·Å² :        0.1039709E+03   0.1273617E+03   0.1516971E+03
rotational constants/cm⁻¹ :        0.1621380E+00   0.1323603E+00   0.1111270E+00

 * 11 selected distances

     #   Z          #   Z                                           value/Å
     1   4 Be       2   4 Be                                      1.8971693
     1   4 Be       3   4 Be                                      1.8979007 (max)
     2   4 Be       4   6 C                                       1.6601883
     3   4 Be       5   6 C                                       1.6599937
     4   6 C        5   6 C                                       1.3466214
     4   6 C        6   6 C                                       1.5053752
     5   6 C        6   6 C                                       1.5054052
     6   6 C        7   1 H                                       1.1169017
     6   6 C        8   1 H                                       1.0910961
     9   1 H       10   1 H                                       0.7794303 (min)
    11   1 H       12   1 H                                       0.7864387

 * 5 distinct bonds (by element types)

   Z      Z             #   av. dist./Å        max./Å        min./Å
   1 H    1 H           2     0.7829345     0.7864387     0.7794303
   4 Be   4 Be          2     1.8975350     1.8979007     1.8971693
   1 H    6 C           2     1.1039989     1.1169017     1.0910961
   4 Be   6 C           2     1.6600910     1.6601883     1.6599937
   6 C    6 C           3     1.4524673     1.5054052     1.3466214


optimized geometry written to: xtbopt.xyz


           -------------------------------------------------
          | TOTAL ENERGY              -11.222995965152 Eh   |
          | GRADIENT NORM               0.000416005646 Eh/α |
          | HOMO-LUMO GAP               3.349464723350 eV   |
           -------------------------------------------------
########################################################################
[WARNING] Runtime exception occurred
-1- restart_readRestart: Number of electron missmatch in restart file.
########################################################################

------------------------------------------------------------------------
 * finished run on 2025/06/07 at 03:27:53.420     
------------------------------------------------------------------------
 total:
 * wall-time:     0 d,  0 h,  0 min,  0.474 sec
 *  cpu-time:     0 d,  0 h,  0 min,  6.778 sec
 * ratio c/w:    14.287 speedup
 SCF:
 * wall-time:     0 d,  0 h,  0 min,  0.023 sec
 *  cpu-time:     0 d,  0 h,  0 min,  0.282 sec
 * ratio c/w:    12.441 speedup
 ANC optimizer:
 * wall-time:     0 d,  0 h,  0 min,  0.448 sec
 *  cpu-time:     0 d,  0 h,  0 min,  6.460 sec
 * ratio c/w:    14.405 speedup

