      -----------------------------------------------------------      
     |                   =====================                   |     
     |                           x T B                           |     
     |                   =====================                   |     
     |                         S. Grimme                         |     
     |          Mulliken Center for Theoretical Chemistry        |     
     |                    University of Bonn                     |     
      -----------------------------------------------------------      

   * xtb version 6.5.1 (conda-forge) compiled by 'runner@Mac-1657629245115.local' on 2022-07-12

   xtb is free software: you can redistribute it and/or modify it under
   the terms of the GNU Lesser General Public License as published by
   the Free Software Foundation, either version 3 of the License, or
   (at your option) any later version.
   
   xtb is distributed in the hope that it will be useful,
   but WITHOUT ANY WARRANTY; without even the implied warranty of
   MERCHANTABILITY or FITNESS FOR A PARTICULAR PURPOSE.  See the
   GNU Lesser General Public License for more details.
   
   Cite this work as:
   * C. Bannwarth, E. Caldeweyher, S. Ehlert, A. Hansen, P. Pracht,
     J. Seibert, S. Spicher, S. Grimme, WIREs Comput. Mol. Sci., 2020, 11,
     e01493. DOI: 10.1002/wcms.1493
   
   for GFN2-xTB:
   * C. Bannwarth, S. Ehlert and S. Grimme., J. Chem. Theory Comput., 2019,
     15, 1652-1671. DOI: 10.1021/acs.jctc.8b01176
   for GFN1-xTB:
   * S. Grimme, C. Bannwarth, P. Shushkov, J. Chem. Theory Comput., 2017,
     13, 1989-2009. DOI: 10.1021/acs.jctc.7b00118
   for GFN0-xTB:
   * P. Pracht, E. Caldeweyher, S. Ehlert, S. Grimme, ChemRxiv, 2019, preprint.
     DOI: 10.26434/chemrxiv.8326202.v1
   for GFN-FF:
   * S. Spicher and S. Grimme, Angew. Chem. Int. Ed., 2020, 59, 15665-15673.
     DOI: 10.1002/anie.202004239
   
   for ALPB and GBSA implicit solvation:
   * S. Ehlert, M. Stahn, S. Spicher, S. Grimme, J. Chem. Theory Comput.,
     2021, 17, 4250-4261. DOI: 10.1021/acs.jctc.1c00471
   
   for DFT-D4:
   * E. Caldeweyher, C. Bannwarth and S. Grimme, J. Chem. Phys., 2017,
     147, 034112. DOI: 10.1063/1.4993215
   * E. Caldeweyher, S. Ehlert, A. Hansen, H. Neugebauer, S. Spicher,
     C. Bannwarth and S. Grimme, J. Chem. Phys., 2019, 150, 154122.
     DOI: 10.1063/1.5090222
   * E. Caldeweyher, J.-M. Mewes, S. Ehlert and S. Grimme, Phys. Chem. Chem. Phys.
     2020, 22, 8499-8512. DOI: 10.1039/D0CP00502A
   
   for sTDA-xTB:
   * S. Grimme and C. Bannwarth, J. Chem. Phys., 2016, 145, 054103.
     DOI: 10.1063/1.4959605
   
   in the mass-spec context:
   * V. Asgeirsson, C. Bauer and S. Grimme, Chem. Sci., 2017, 8, 4879.
     DOI: 10.1039/c7sc00601b
   * J. Koopman and S. Grimme, ACS Omega 2019, 4, 12, 15120-15133.
     DOI: 10.1021/acsomega.9b02011
   
   for metadynamics refer to:
   * S. Grimme, J. Chem. Theory Comput., 2019, 155, 2847-2862
     DOI: 10.1021/acs.jctc.9b00143
   
   for SPH calculations refer to:
   * S. Spicher and S. Grimme, J. Chem. Theory Comput., 2021, 17, 1701-1714
     DOI: 10.1021/acs.jctc.0c01306
   
   with help from (in alphabetical order)
   P. Atkinson, C. Bannwarth, F. Bohle, G. Brandenburg, E. Caldeweyher
   M. Checinski, S. Dohm, S. Ehlert, S. Ehrlich, I. Gerasimov, C. Hölzer
   A. Katbashev, J. Koopman, C. Lavigne, S. Lehtola, F. März, M. Müller,
   F. Musil, H. Neugebauer, J. Pisarek, C. Plett, P. Pracht, F. Pultar,
   J. Seibert, P. Shushkov, S. Spicher, M. Stahn, M. Steiner, T. Strunk,
   J. Stückrath, T. Rose, and J. Unsleber
   
 * started run on 2025/06/07 at 03:27:53.433     

           -------------------------------------------------
          |                Calculation Setup                |
           -------------------------------------------------

          program call               : xtb BeC2H3.xyz --gfn 2 --opt
          coordinate file            : BeC2H3.xyz
          omp threads                :                    16

   ID    Z sym.   atoms
    1    4 Be     1
    2    6 C      2, 3
    3    1 H      4-6

molecular fragmentation (1/2 indicates fragments):
111122
# atoms in fragment 1/2:     4     2
 fragment masses (1/2) :       34.04        2.02
CMA distance (Bohr)    :   3.875
constraining FC (au)   :  0.0500

           -------------------------------------------------
          |                 G F N 2 - x T B                 |
           -------------------------------------------------

        Reference                      10.1021/acs.jctc.8b01176
      * Hamiltonian:
        H0-scaling (s, p, d)           1.850000    2.230000    2.230000
        zeta-weighting                 0.500000
      * Dispersion:
        s8                             2.700000
        a1                             0.520000
        a2                             5.000000
        s9                             5.000000
      * Repulsion:
        kExp                           1.500000    1.000000
        rExp                           1.000000
      * Coulomb:
        alpha                          2.000000
        third order                    shell-resolved
        anisotropic                    true
        a3                             3.000000
        a5                             4.000000
        cn-shift                       1.200000
        cn-exp                         4.000000
        max-rad                        5.000000


          ...................................................
          :                      SETUP                      :
          :.................................................:
          :  # basis functions                  15          :
          :  # atomic orbitals                  15          :
          :  # shells                            9          :
          :  # electrons                        13          :
          :  max. iterations                   250          :
          :  Hamiltonian                  GFN2-xTB          :
          :  restarted?                      false          :
          :  GBSA solvation                  false          :
          :  PC potential                    false          :
          :  electronic temp.          300.0000000     K    :
          :  accuracy                    1.0000000          :
          :  -> integral cutoff          0.2500000E+02      :
          :  -> integral neglect         0.1000000E-07      :
          :  -> SCF convergence          0.1000000E-05 Eh   :
          :  -> wf. convergence          0.1000000E-03 e    :
          :  Broyden damping             0.4000000          :
          ...................................................

 iter      E             dE          RMSdq      gap      omega  full diag
   1     10.8037590  0.108038E+02  0.267E+01    1.02       0.0  T
   2     -3.3119419 -0.141157E+02  0.188E+01    3.07       1.0  T
   3     -3.0036987  0.308243E+00  0.170E+01    1.00       1.0  T
   4     -3.7969470 -0.793248E+00  0.121E+01    2.19       1.0  T
   5     -5.2621936 -0.146525E+01  0.100E+01    0.32       1.0  T
   6     -4.5937572  0.668436E+00  0.759E+00    0.31       1.0  T
   7     -4.8248921 -0.231135E+00  0.865E+00    0.25       1.0  T
   8     14.0481904  0.188731E+02  0.280E+01    0.33       1.0  T
   9     -5.6689256 -0.197171E+02  0.694E+00    0.85       1.0  T
  10     -5.4066509  0.262275E+00  0.868E+00    1.12       1.0  T
  11     -1.7802468  0.362640E+01  0.131E+01    1.22       1.0  T
  12     -0.9746608  0.805586E+00  0.140E+01    1.28       1.0  T
  13     -1.5195855 -0.544925E+00  0.133E+01    1.23       1.0  T
  14     -1.1067782  0.412807E+00  0.138E+01    1.26       1.0  T
  15      5.9817357  0.708851E+01  0.220E+01    1.18       1.0  T
  16      7.0274676  0.104573E+01  0.230E+01    1.10       1.0  T
  17      7.5195134  0.492046E+00  0.235E+01    1.06       1.0  T
  18      5.4819106 -0.203760E+01  0.214E+01    1.27       1.0  T
  19      5.4271574 -0.547532E-01  0.214E+01    1.27       1.0  T
  20      6.8951855  0.146803E+01  0.231E+01    1.17       1.0  T
  21      7.1129761  0.217791E+00  0.237E+01    1.19       1.0  T
  22      6.4075171 -0.705459E+00  0.227E+01    1.22       1.0  T
  23      6.5044929  0.969759E-01  0.229E+01    1.21       1.0  T
  24      6.3276178 -0.176875E+00  0.226E+01    1.22       1.0  T
  25      1.5269010 -0.480072E+01  0.167E+01    1.55       1.0  T
  26     -1.0643122 -0.259121E+01  0.143E+01    1.48       1.0  T
  27     -3.9615655 -0.289725E+01  0.108E+01    1.25       1.0  T
  28     -5.4251886 -0.146362E+01  0.757E+00    1.26       1.0  T
  29     -5.8732018 -0.448013E+00  0.350E+00    0.53       1.0  T
  30     -5.7426622  0.130540E+00  0.499E+00    1.02       1.0  T
  31     -5.6612478  0.814145E-01  0.546E+00    1.10       1.0  T
  32     -5.1774787  0.483769E+00  0.744E+00    1.34       1.0  T
  33     -5.8100838 -0.632605E+00  0.378E+00    0.47       1.0  T
  34     -5.3991084  0.410975E+00  0.598E+00    1.23       1.0  T
  35     -5.1910992  0.208009E+00  0.658E+00    1.32       1.0  T
  36     -5.8770915 -0.685992E+00  0.186E+00    0.68       1.0  T
  37     -5.8940378 -0.169464E-01  0.178E+00    0.58       1.0  T
  38     -5.8946444 -0.606592E-03  0.173E+00    0.56       1.0  T
  39     -5.8947490 -0.104568E-03  0.171E+00    0.56       1.0  T
  40     -5.8707226  0.240263E-01  0.264E+00    0.34       1.0  T
  41     -5.8715832 -0.860520E-03  0.263E+00    0.34       1.0  T
  42     -5.8839394 -0.123563E-01  0.241E+00    0.39       1.0  T
  43     -5.8463574  0.375820E-01  0.294E+00    0.28       1.0  T
  44     -5.8696706 -0.233132E-01  0.263E+00    0.33       1.0  T
  45     -5.8865955 -0.169249E-01  0.235E+00    0.39       1.0  T
  46     -5.8860153  0.580196E-03  0.227E+00    0.38       1.0  T
  47     -5.8913819 -0.536653E-02  0.196E+00    0.41       1.0  T
  48     -5.8898507  0.153121E-02  0.183E+00    0.40       1.0  T
  49     -5.8938038 -0.395311E-02  0.157E+00    0.43       1.0  T
  50     -5.8953923 -0.158850E-02  0.142E+00    0.45       1.0  T
  51     -5.8959454 -0.553150E-03  0.130E+00    0.47       1.0  T
  52     -5.8961570 -0.211591E-03  0.123E+00    0.47       1.0  T
  53     -5.8961726 -0.155659E-04  0.119E+00    0.47       1.0  T
  54     -5.8960305  0.142028E-03  0.115E+00    0.46       1.0  T
  55     -5.8957923  0.238287E-03  0.113E+00    0.45       1.0  T
  56     -5.8956853  0.106950E-03  0.112E+00    0.45       1.0  T
  57     -5.8956645  0.208009E-04  0.113E+00    0.45       1.0  T
  58     -5.8956572  0.726583E-05  0.113E+00    0.45       1.0  T
  59     -5.8961940 -0.536799E-03  0.107E+00    0.46       1.0  T
  60     -5.8964775 -0.283466E-03  0.963E-01    0.48       1.0  T
  61     -5.8954612  0.101631E-02  0.885E-01    0.51       1.0  T
  62     -5.8945089  0.952344E-03  0.840E-01    0.52       1.0  T
  63     -5.8942207  0.288133E-03  0.811E-01    0.52       1.0  T
  64     -5.8947762 -0.555494E-03  0.771E-01    0.51       1.0  T
  65     -5.8955334 -0.757162E-03  0.714E-01    0.50       1.0  T
  66     -5.8959755 -0.442085E-03  0.640E-01    0.49       1.0  T
  67     -5.8962033 -0.227867E-03  0.557E-01    0.48       1.0  T
  68     -5.8963004 -0.970649E-04  0.486E-01    0.48       1.0  T
  69     -5.8963811 -0.806715E-04  0.437E-01    0.48       1.0  T
  70     -5.8964796 -0.985340E-04  0.395E-01    0.47       1.0  T
  71     -5.8965487 -0.691387E-04  0.351E-01    0.47       1.0  T
  72     -5.8965621 -0.133594E-04  0.309E-01    0.46       1.0  T
  73     -5.8965569  0.517647E-05  0.268E-01    0.46       1.0  T
  74     -5.8965642 -0.727357E-05  0.228E-01    0.46       1.0  T
  75     -5.8965791 -0.149215E-04  0.188E-01    0.46       1.0  T
  76     -5.8965908 -0.116468E-04  0.146E-01    0.46       1.0  T
  77     -5.8965957 -0.491771E-05  0.106E-01    0.47       1.0  T
  78     -5.8965973 -0.165428E-05  0.708E-02    0.47       1.0  T
  79     -5.8965985 -0.112950E-05  0.418E-02    0.47       1.0  T
  80     -5.8965995 -0.106138E-05  0.210E-02    0.47       1.9  T
  81     -5.8966003 -0.795383E-06  0.643E-03    0.47       6.3  T
  82     -5.8966005 -0.177038E-06  0.978E-03    0.47       4.2  T
  83     -5.8966005  0.297407E-07  0.901E-03    0.47       4.5  T
  84     -5.8966005  0.504534E-08  0.430E-03    0.47       9.5  T
  85     -5.8966005 -0.666744E-07  0.308E-03    0.47      13.3  T
  86     -5.8966005 -0.637508E-08  0.311E-03    0.47      13.1  T
  87     -5.8966005  0.175746E-08  0.261E-03    0.47      15.6  T
  88     -5.8966005  0.246772E-08  0.136E-03    0.47      29.9  T
  89     -5.8966005 -0.245714E-08  0.705E-04    0.47      57.9  T
  90     -5.8966005 -0.166505E-08  0.495E-04    0.47      82.4  T

   *** convergence criteria satisfied after 90 iterations ***

         #    Occupation            Energy/Eh            Energy/eV
      -------------------------------------------------------------
         1        2.0000           -0.6161376             -16.7660
         2        2.0000           -0.4995494             -13.5934
         3        2.0000           -0.4560328             -12.4093
         4        2.0000           -0.3295905              -8.9686
         5        2.0000           -0.3025910              -8.2339
         6        2.0000           -0.2688885              -7.3168
         7        0.9999           -0.2375542              -6.4642 (HOMO)
         8        0.0001           -0.2203964              -5.9973 (LUMO)
         9                         -0.1791355              -4.8745
        10                         -0.1224842              -3.3330
        11                         -0.0891472              -2.4258
        12                         -0.0767909              -2.0896
       ...                                ...                  ...
        15                          0.2103210               5.7231
      -------------------------------------------------------------
                  HL-Gap            0.0171578 Eh            0.4669 eV
             Fermi-level           -0.2410983 Eh           -6.5606 eV

 SCC (total)                   0 d,  0 h,  0 min,  0.018 sec
 SCC setup                      ...        0 min,  0.000 sec (  0.340%)
 Dispersion                     ...        0 min,  0.000 sec (  1.177%)
 classical contributions        ...        0 min,  0.000 sec (  0.550%)
 integral evaluation            ...        0 min,  0.000 sec (  0.730%)
 iterations                     ...        0 min,  0.017 sec ( 93.362%)
 molecular gradient             ...        0 min,  0.001 sec (  3.608%)
 printout                       ...        0 min,  0.000 sec (  0.173%)

         :::::::::::::::::::::::::::::::::::::::::::::::::::::
         ::                     SUMMARY                     ::
         :::::::::::::::::::::::::::::::::::::::::::::::::::::
         :: total energy              -5.853662990511 Eh    ::
         :: gradient norm              0.258786014574 Eh/a0 ::
         :: HOMO-LUMO gap              0.466887640041 eV    ::
         ::.................................................::
         :: SCC energy                -5.896600544319 Eh    ::
         :: -> isotropic ES           -0.031049949473 Eh    ::
         :: -> anisotropic ES          0.002610932721 Eh    ::
         :: -> anisotropic XC          0.004663555529 Eh    ::
         :: -> dispersion             -0.002225878083 Eh    ::
         :: repulsion energy           0.042937437589 Eh    ::
         :: add. restraining           0.000000000000 Eh    ::
         :: total charge              -0.000000000000 e     ::
         :::::::::::::::::::::::::::::::::::::::::::::::::::::

      ----------------------------------------------------------- 
     |                   =====================                   |
     |                        A N C O P T                        |
     |                   =====================                   |
     |               Approximate Normal Coordinate               |
     |                Rational Function Optimizer                |
      ----------------------------------------------------------- 

          ...................................................
          :                      SETUP                      :
          :.................................................:
          :   optimization level            normal          :
          :   max. optcycles                   200          :
          :   ANC micro-cycles                  20          :
          :   degrees of freedom                12          :
          :.................................................:
          :   RF solver                   davidson          :
          :   write xtbopt.log                true          :
          :   linear?                        false          :
          :   energy convergence         0.5000000E-05 Eh   :
          :   grad. convergence          0.1000000E-02 Eh/α :
          :   maximium RF displ.         1.0000000          :
          :   Hlow (freq-cutoff)         0.1000000E-01      :
          :   Hmax (freq-cutoff)         5.0000000          :
          :   S6 in model hess.         20.0000000          :
          ...................................................

generating ANC from model Hessian ...
Using Lindh-Hessian (1995)
 Shifting diagonal of input Hessian by    7.9092453773269168E-003
 Lowest  eigenvalues of input Hessian
    0.000000    0.000000    0.000000    0.000000    0.000000    0.000000
    0.010000    0.014067    0.037996    0.049074    0.105378    0.124664
    0.134911    0.167956    0.268242    0.303664    0.341795    0.496902
 Highest eigenvalues
    0.134911    0.167956    0.268242    0.303664    0.341795    0.496902


........................................................................
.............................. CYCLE    1 ..............................
........................................................................
   1     -5.8966005 -0.589660E+01  0.119E-04    0.47       0.0  T
   2     -5.8966005  0.274377E-09  0.131E-04    0.47     311.7  T
   3     -5.8966005  0.138321E-08  0.371E-04    0.47     110.2  T
     SCC iter.                  ...        0 min,  0.000 sec
     gradient                   ...        0 min,  0.000 sec
 * total energy  :    -5.8536630 Eh     change        0.1171466E-08 Eh
   gradient norm :     0.2569405 Eh/α   predicted     0.0000000E+00 (-100.00%)
   displ. norm   :     0.7037288 α      lambda       -0.1641624E+00
   maximum displ.:     0.4387952 α      in ANC's #4, #11, #1, ...

........................................................................
.............................. CYCLE    2 ..............................
........................................................................
   1     -5.9544391 -0.595444E+01  0.372E+00    0.72       0.0  T
   2     -4.3214147  0.163302E+01  0.963E+00    1.18       1.0  T
   3     -5.6241812 -0.130277E+01  0.517E+00    0.47       1.0  T
   4     -5.8985134 -0.274332E+00  0.359E+00    0.56       1.0  T
   5     -5.9484206 -0.499072E-01  0.235E+00    0.71       1.0  T
   6     -5.9907657 -0.423451E-01  0.132E+00    0.72       1.0  T
   7     -6.0068236 -0.160579E-01  0.650E-01    0.88       1.0  T
   8     -6.0063398  0.483840E-03  0.502E-01    0.86       1.0  T
   9     -6.0071251 -0.785315E-03  0.172E-01    0.88       1.0  T
  10     -6.0069521  0.172998E-03  0.165E-01    0.88       1.0  T
  11     -6.0071542 -0.202115E-03  0.834E-02    0.89       1.0  T
  12     -6.0071382  0.160267E-04  0.622E-02    0.88       1.0  T
  13     -6.0071796 -0.413799E-04  0.292E-02    0.89       1.4  T
  14     -6.0071798 -0.264147E-06  0.244E-02    0.89       1.7  T
  15     -6.0071817 -0.186587E-05  0.323E-03    0.89      12.6  T
  16     -6.0071817 -0.545890E-09  0.295E-03    0.89      13.8  T
  17     -6.0071817 -0.212054E-07  0.204E-03    0.89      20.0  T
  18     -6.0071817 -0.250244E-07  0.668E-04    0.89      61.1  T
  19     -6.0071817 -0.255229E-08  0.164E-04    0.89     249.3  T
     SCC iter.                  ...        0 min,  0.004 sec
     gradient                   ...        0 min,  0.000 sec
 * total energy  :    -5.9778876 Eh     change       -0.1242246E+00 Eh
   gradient norm :     0.2046204 Eh/α   predicted    -0.1227306E+00 (  -1.20%)
   displ. norm   :     0.8848912 α      lambda       -0.1777664E+00
   maximum displ.:     0.6686250 α      in ANC's #11, #9, #4, ...

........................................................................
.............................. CYCLE    3 ..............................
........................................................................
   1     -6.2243647 -0.622436E+01  0.406E+00    1.30       0.0  T
   2     -6.1239776  0.100387E+00  0.320E+00    1.59       1.0  T
   3     -5.8074388  0.316539E+00  0.610E+00    1.52       1.0  T
   4     -6.1911661 -0.383727E+00  0.262E+00    1.34       1.0  T
   5     -6.2335269 -0.423608E-01  0.945E-01    1.32       1.0  T
   6     -6.2373625 -0.383555E-02  0.974E-01    1.42       1.0  T
   7     -6.2234239  0.139386E-01  0.124E+00    1.50       1.0  T
   8     -6.2393661 -0.159422E-01  0.290E-01    1.37       1.0  T
   9     -6.2393302  0.358842E-04  0.234E-01    1.37       1.0  T
  10     -6.2393800 -0.498260E-04  0.132E-01    1.37       1.0  T
  11     -6.2393893 -0.931458E-05  0.586E-02    1.38       1.0  T
  12     -6.2393889  0.400834E-06  0.206E-02    1.38       2.0  T
  13     -6.2393900 -0.101410E-05  0.151E-02    1.38       2.7  T
  14     -6.2393900 -0.585166E-07  0.809E-03    1.38       5.0  T
  15     -6.2393900 -0.119363E-07  0.238E-03    1.38      17.2  T
  16     -6.2393900 -0.140023E-08  0.252E-04    1.38     162.2  T
  17     -6.2393900 -0.348095E-10  0.481E-05    1.38     848.3  T
     SCC iter.                  ...        0 min,  0.003 sec
     gradient                   ...        0 min,  0.000 sec
 * total energy  :    -6.1066515 Eh     change       -0.1287639E+00 Eh
   gradient norm :     0.1734238 Eh/α   predicted    -0.1584816E+00 (  23.08%)
   displ. norm   :     0.6649491 α      lambda       -0.9128953E-01
   maximum displ.:     0.3572951 α      in ANC's #4, #9, #7, ...

........................................................................
.............................. CYCLE    4 ..............................
........................................................................
   1     -6.3143346 -0.631433E+01  0.226E+00    1.06       0.0  T
   2     -6.2942812  0.200533E-01  0.213E+00    1.37       1.0  T
   3     -6.2579957  0.362855E-01  0.266E+00    1.05       1.0  T
   4     -6.3129807 -0.549850E-01  0.114E+00    1.22       1.0  T
   5     -6.3192681 -0.628736E-02  0.577E-01    1.23       1.0  T
   6     -6.3166086  0.265949E-02  0.706E-01    1.26       1.0  T
   7     -6.3201689 -0.356031E-02  0.232E-01    1.21       1.0  T
   8     -6.3203265 -0.157537E-03  0.345E-02    1.21       1.2  T
   9     -6.3203251  0.131797E-05  0.186E-02    1.21       2.2  T
  10     -6.3203273 -0.214831E-05  0.561E-03    1.21       7.3  T
  11     -6.3203272  0.106064E-06  0.438E-03    1.21       9.3  T
  12     -6.3203274 -0.182177E-06  0.572E-04    1.21      71.4  T
  13     -6.3203274 -0.242705E-08  0.972E-05    1.21     420.1  T
     SCC iter.                  ...        0 min,  0.002 sec
     gradient                   ...        0 min,  0.000 sec
 * total energy  :    -6.1101652 Eh     change       -0.3513722E-02 Eh
   gradient norm :     0.4493568 Eh/α   predicted    -0.6582693E-01 (1773.42%)
   displ. norm   :     0.5108673 α      lambda       -0.1729695E+00
   maximum displ.:     0.2496716 α      in ANC's #11, #9, #10, ...

........................................................................
.............................. CYCLE    5 ..............................
........................................................................
   1     -6.2249982 -0.622500E+01  0.410E+00    1.31       0.0  T
   2     -5.1382496  0.108675E+01  0.692E+00    1.73       1.0  T
   3     -5.8091381 -0.670889E+00  0.597E+00    1.75       1.0  T
   4     -5.9457595 -0.136621E+00  0.465E+00    1.79       1.0  T
   5     -6.1870888 -0.241329E+00  0.267E+00    1.39       1.0  T
   6     -6.2153706 -0.282818E-01  0.189E+00    1.38       1.0  T
   7     -6.2256817 -0.103111E-01  0.169E+00    1.36       1.0  T
   8     -6.2596893 -0.340076E-01  0.465E-01    1.27       1.0  T
   9     -6.2616833 -0.199406E-02  0.271E-01    1.26       1.0  T
  10     -6.2623284 -0.645046E-03  0.307E-02    1.26       1.3  T
  11     -6.2623406 -0.122524E-04  0.307E-02    1.26       1.3  T
  12     -6.2623400  0.590010E-06  0.142E-02    1.26       2.9  T
  13     -6.2623429 -0.283713E-05  0.456E-03    1.26       9.0  T
  14     -6.2623432 -0.307589E-06  0.195E-03    1.26      21.0  T
  15     -6.2623432 -0.222259E-07  0.567E-04    1.26      72.0  T
  16     -6.2623432 -0.149161E-09  0.159E-04    1.26     256.9  T
     SCC iter.                  ...        0 min,  0.002 sec
     gradient                   ...        0 min,  0.000 sec
 * total energy  :    -6.1629994 Eh     change       -0.5283426E-01 Eh
   gradient norm :     0.1473838 Eh/α   predicted    -0.1090560E+00 ( 106.41%)
   displ. norm   :     0.4744403 α      lambda       -0.5577111E-01
   maximum displ.:     0.2358004 α      in ANC's #7, #11, #9, ...

........................................................................
.............................. CYCLE    6 ..............................
........................................................................
   1     -6.2994879 -0.629949E+01  0.497E+00    1.00       0.0  T
   2     -6.0021477  0.297340E+00  0.457E+00    1.61       1.0  T
   3     -5.0934443  0.908703E+00  0.827E+00    1.94       1.0  T
   4     -6.3235330 -0.123009E+01  0.194E+00    0.97       1.0  T
   5     -6.3239534 -0.420443E-03  0.109E+00    1.03       1.0  T
   6     -6.3242849 -0.331460E-03  0.108E+00    1.03       1.0  T
   7     -6.3252251 -0.940168E-03  0.981E-01    1.04       1.0  T
   8     -6.3257736 -0.548504E-03  0.265E-01    1.06       1.0  T
   9     -6.3257076  0.660000E-04  0.237E-01    1.06       1.0  T
  10     -6.3259069 -0.199315E-03  0.151E-01    1.07       1.0  T
  11     -6.3259152 -0.834842E-05  0.642E-02    1.07       1.0  T
  12     -6.3259158 -0.578433E-06  0.270E-02    1.07       1.5  T
  13     -6.3259159 -0.444368E-07  0.763E-03    1.07       5.4  T
  14     -6.3259159 -0.265003E-08  0.124E-03    1.07      33.0  T
  15     -6.3259159 -0.275354E-08  0.479E-04    1.07      85.3  T
  16     -6.3259159 -0.467097E-09  0.850E-05    1.07     480.5  T
     SCC iter.                  ...        0 min,  0.002 sec
     gradient                   ...        0 min,  0.000 sec
 * total energy  :    -6.2038744 Eh     change       -0.4087494E-01 Eh
   gradient norm :     0.1098018 Eh/α   predicted    -0.3416242E-01 ( -16.42%)
   displ. norm   :     0.5708803 α      lambda       -0.3962720E-01
   maximum displ.:     0.3273424 α      in ANC's #11, #7, #2, ...

........................................................................
.............................. CYCLE    7 ..............................
........................................................................
   1     -6.3680343 -0.636803E+01  0.500E+00    1.80       0.0  T
   2     -6.3044352  0.635991E-01  0.308E+00    1.17       1.0  T
   3     -6.1739615  0.130474E+00  0.502E+00    2.33       1.0  T
   4     -6.3560671 -0.182106E+00  0.192E+00    1.22       1.0  T
   5     -6.3834223 -0.273553E-01  0.102E+00    1.56       1.0  T
   6     -6.3855794 -0.215710E-02  0.774E-01    1.64       1.0  T
   7     -6.3855463  0.331700E-04  0.690E-01    1.80       1.0  T
   8     -6.3860821 -0.535870E-03  0.121E-01    1.77       1.0  T
   9     -6.3861316 -0.494354E-04  0.959E-02    1.77       1.0  T
  10     -6.3861594 -0.278301E-04  0.246E-02    1.75       1.7  T
  11     -6.3861565  0.293933E-05  0.233E-02    1.75       1.8  T
  12     -6.3861642 -0.767990E-05  0.626E-03    1.75       6.5  T
  13     -6.3861649 -0.721148E-06  0.889E-04    1.75      45.9  T
  14     -6.3861649 -0.347405E-08  0.837E-04    1.75      48.7  T
     SCC iter.                  ...        0 min,  0.002 sec
     gradient                   ...        0 min,  0.001 sec
 * total energy  :    -6.2312373 Eh     change       -0.2736296E-01 Eh
   gradient norm :     0.0542336 Eh/α   predicted    -0.2627093E-01 (  -3.99%)
   displ. norm   :     0.6699716 α      lambda       -0.3019356E-01
   maximum displ.:     0.3432695 α      in ANC's #9, #5, #11, ...

........................................................................
.............................. CYCLE    8 ..............................
........................................................................
   1     -6.4345111 -0.643451E+01  0.261E+00    2.42       0.0  T
   2     -6.4320321  0.247894E-02  0.193E+00    2.38       1.0  T
   3     -6.4331503 -0.111821E-02  0.149E+00    2.44       1.0  T
   4     -6.4386717 -0.552138E-02  0.184E-01    2.41       1.0  T
   5     -6.4385475  0.124228E-03  0.278E-01    2.43       1.0  T
   6     -6.4387820 -0.234485E-03  0.591E-02    2.42       1.0  T
   7     -6.4387833 -0.130824E-05  0.142E-02    2.42       2.9  T
   8     -6.4387830  0.264660E-06  0.119E-02    2.42       3.4  T
   9     -6.4387833 -0.328234E-06  0.189E-03    2.42      21.6  T
  10     -6.4387834 -0.701749E-08  0.321E-04    2.42     127.1  T
  11     -6.4387834 -0.746603E-10  0.104E-04    2.42     393.7  T
     SCC iter.                  ...        0 min,  0.001 sec
     gradient                   ...        0 min,  0.000 sec
 * total energy  :    -6.2374176 Eh     change       -0.6180277E-02 Eh
   gradient norm :     0.1864400 Eh/α   predicted    -0.2187315E-01 ( 253.92%)
   displ. norm   :     0.3512313 α      lambda       -0.2937428E-01
   maximum displ.:     0.2211161 α      in ANC's #3, #12, #4, ...

........................................................................
.............................. CYCLE    9 ..............................
........................................................................
   1     -6.4033532 -0.640335E+01  0.152E+00    1.96       0.0  T
   2     -6.4026746  0.678624E-03  0.943E-01    1.90       1.0  T
   3     -6.3943820  0.829255E-02  0.126E+00    2.03       1.0  T
   4     -6.4036610 -0.927896E-02  0.130E-01    1.90       1.0  T
   5     -6.4037232 -0.621951E-04  0.100E-01    1.92       1.0  T
   6     -6.4037364 -0.132839E-04  0.518E-02    1.92       1.0  T
   7     -6.4037441 -0.760404E-05  0.174E-02    1.91       2.3  T
   8     -6.4037442 -0.165082E-06  0.615E-03    1.91       6.6  T
   9     -6.4037442 -0.163418E-07  0.681E-04    1.91      59.9  T
  10     -6.4037442 -0.110216E-08  0.257E-04    1.91     159.1  T
     SCC iter.                  ...        0 min,  0.001 sec
     gradient                   ...        0 min,  0.000 sec
 * total energy  :    -6.2510947 Eh     change       -0.1367708E-01 Eh
   gradient norm :     0.0708868 Eh/α   predicted    -0.1649900E-01 (  20.63%)
   displ. norm   :     0.3503788 α      lambda       -0.1076601E-01
   maximum displ.:     0.2024164 α      in ANC's #3, #1, #5, ...

........................................................................
.............................. CYCLE   10 ..............................
........................................................................
   1     -6.4232583 -0.642326E+01  0.132E+00    2.07       0.0  T
   2     -6.4232307  0.275709E-04  0.936E-01    2.08       1.0  T
   3     -6.4211576  0.207304E-02  0.633E-01    2.01       1.0  T
   4     -6.4233540 -0.219637E-02  0.818E-02    2.06       1.0  T
   5     -6.4233428  0.111667E-04  0.635E-02    2.06       1.0  T
   6     -6.4233599 -0.170469E-04  0.195E-02    2.06       2.1  T
   7     -6.4233613 -0.140883E-05  0.605E-03    2.06       6.7  T
   8     -6.4233613  0.471338E-08  0.273E-03    2.06      14.9  T
   9     -6.4233613 -0.175687E-08  0.184E-03    2.06      22.2  T
  10     -6.4233613 -0.105895E-07  0.431E-04    2.06      94.7  T
  11     -6.4233613 -0.240817E-09  0.662E-05    2.06     616.5  T
     SCC iter.                  ...        0 min,  0.001 sec
     gradient                   ...        0 min,  0.000 sec
 * total energy  :    -6.2554463 Eh     change       -0.4351557E-02 Eh
   gradient norm :     0.0567059 Eh/α   predicted    -0.6043851E-02 (  38.89%)
   displ. norm   :     0.3773523 α      lambda       -0.6729939E-02
   maximum displ.:     0.2397252 α      in ANC's #3, #5, #11, ...

........................................................................
.............................. CYCLE   11 ..............................
........................................................................
   1     -6.4182717 -0.641827E+01  0.131E+00    2.06       0.0  T
   2     -6.4182096  0.620896E-04  0.849E-01    2.06       1.0  T
   3     -6.4158481  0.236152E-02  0.722E-01    2.06       1.0  T
   4     -6.4183470 -0.249890E-02  0.941E-02    2.04       1.0  T
   5     -6.4183817 -0.347640E-04  0.781E-02    2.06       1.0  T
   6     -6.4183987 -0.169749E-04  0.128E-02    2.05       3.2  T
   7     -6.4183987 -0.301287E-07  0.739E-03    2.05       5.5  T
   8     -6.4183987 -0.103877E-07  0.357E-03    2.05      11.4  T
   9     -6.4183988 -0.626535E-08  0.103E-03    2.05      39.8  T
  10     -6.4183988 -0.193865E-08  0.313E-04    2.05     130.6  T
  11     -6.4183988 -0.221339E-09  0.884E-05    2.05     462.0  T
     SCC iter.                  ...        0 min,  0.003 sec
     gradient                   ...        0 min,  0.000 sec
 * total energy  :    -6.2596141 Eh     change       -0.4167846E-02 Eh
   gradient norm :     0.0294671 Eh/α   predicted    -0.3844129E-02 (  -7.77%)
   displ. norm   :     0.5594048 α      lambda       -0.8344694E-02
   maximum displ.:     0.3120377 α      in ANC's #3, #1, #2, ...

........................................................................
.............................. CYCLE   12 ..............................
........................................................................
   1     -6.4281390 -0.642814E+01  0.242E+00    1.90       0.0  T
   2     -6.4280735  0.654869E-04  0.150E+00    1.88       1.0  T
   3     -6.4235589  0.451462E-02  0.892E-01    1.97       1.0  T
   4     -6.4282315 -0.467258E-02  0.828E-02    1.89       1.0  T
   5     -6.4282278  0.370248E-05  0.460E-02    1.89       1.0  T
   6     -6.4282345 -0.671109E-05  0.184E-02    1.89       2.2  T
   7     -6.4282351 -0.591473E-06  0.977E-03    1.89       4.2  T
   8     -6.4282351 -0.130159E-07  0.282E-03    1.89      14.5  T
   9     -6.4282351 -0.193117E-07  0.400E-04    1.89     102.0  T
  10     -6.4282351  0.435663E-09  0.411E-04    1.89      99.4  T
     SCC iter.                  ...        0 min,  0.002 sec
     gradient                   ...        0 min,  0.001 sec
 * total energy  :    -6.2613914 Eh     change       -0.1777298E-02 Eh
   gradient norm :     0.0716885 Eh/α   predicted    -0.5478020E-02 ( 208.22%)
   displ. norm   :     0.2390145 α      lambda       -0.7226563E-02
   maximum displ.:     0.1434066 α      in ANC's #3, #4, #1, ...

........................................................................
.............................. CYCLE   13 ..............................
........................................................................
   1     -6.4427854 -0.644279E+01  0.102E+00    1.94       0.0  T
   2     -6.4427699  0.155404E-04  0.666E-01    1.93       1.0  T
   3     -6.4416282  0.114164E-02  0.454E-01    1.99       1.0  T
   4     -6.4428107 -0.118253E-02  0.674E-02    1.95       1.0  T
   5     -6.4428066  0.411502E-05  0.564E-02    1.95       1.0  T
   6     -6.4428146 -0.797080E-05  0.124E-02    1.95       3.3  T
   7     -6.4428147 -0.916724E-07  0.877E-03    1.95       4.7  T
   8     -6.4428148 -0.148557E-06  0.990E-04    1.95      41.2  T
   9     -6.4428148 -0.207462E-08  0.335E-04    1.95     122.0  T
     SCC iter.                  ...        0 min,  0.001 sec
     gradient                   ...        0 min,  0.001 sec
 * total energy  :    -6.2654723 Eh     change       -0.4080894E-02 Eh
   gradient norm :     0.0277226 Eh/α   predicted    -0.3819704E-02 (  -6.40%)
   displ. norm   :     0.4307483 α      lambda       -0.3819791E-02
   maximum displ.:     0.3361738 α      in ANC's #3, #1, #2, ...

........................................................................
.............................. CYCLE   14 ..............................
........................................................................
   1     -6.4310610 -0.643106E+01  0.243E+00    1.93       0.0  T
   2     -6.4310807 -0.196411E-04  0.156E+00    1.93       1.0  T
   3     -6.4310623  0.184183E-04  0.125E-01    1.94       1.0  T
   4     -6.4310749 -0.125919E-04  0.910E-02    1.93       1.0  T
   5     -6.4310915 -0.166878E-04  0.419E-02    1.93       1.0  T
   6     -6.4310971 -0.552371E-05  0.171E-02    1.93       2.4  T
   7     -6.4310973 -0.215813E-06  0.108E-02    1.93       3.8  T
   8     -6.4310973 -0.621641E-07  0.119E-03    1.93      34.5  T
   9     -6.4310973 -0.931542E-09  0.298E-04    1.93     136.9  T
  10     -6.4310973 -0.450955E-10  0.142E-04    1.93     287.7  T
     SCC iter.                  ...        0 min,  0.001 sec
     gradient                   ...        0 min,  0.000 sec
 * total energy  :    -6.2672681 Eh     change       -0.1795764E-02 Eh
   gradient norm :     0.0260262 Eh/α   predicted    -0.2264272E-02 (  26.09%)
   displ. norm   :     0.2352943 α      lambda       -0.2531958E-02
   maximum displ.:     0.1346328 α      in ANC's #3, #6, #7, ...

........................................................................
.............................. CYCLE   15 ..............................
........................................................................
   1     -6.4399177 -0.643992E+01  0.146E+00    1.88       0.0  T
   2     -6.4398902  0.274606E-04  0.924E-01    1.86       1.0  T
   3     -6.4380486  0.184160E-02  0.617E-01    1.95       1.0  T
   4     -6.4399592 -0.191056E-02  0.681E-02    1.89       1.0  T
   5     -6.4399748 -0.156246E-04  0.380E-02    1.88       1.1  T
   6     -6.4399753 -0.452583E-06  0.185E-02    1.89       2.2  T
   7     -6.4399761 -0.795204E-06  0.745E-03    1.88       5.5  T
   8     -6.4399761 -0.863795E-07  0.146E-03    1.88      27.9  T
   9     -6.4399762 -0.826888E-08  0.159E-04    1.88     256.9  T
  10     -6.4399762 -0.672706E-11  0.395E-05    1.88    1032.5  T
     SCC iter.                  ...        0 min,  0.001 sec
     gradient                   ...        0 min,  0.001 sec
 * total energy  :    -6.2690834 Eh     change       -0.1815380E-02 Eh
   gradient norm :     0.0129348 Eh/α   predicted    -0.1336067E-02 ( -26.40%)
   displ. norm   :     0.4771793 α      lambda       -0.2449028E-02
   maximum displ.:     0.3367630 α      in ANC's #3, #6, #1, ...

........................................................................
.............................. CYCLE   16 ..............................
........................................................................
   1     -6.4391181 -0.643912E+01  0.324E+00    1.89       0.0  T
   2     -6.4391393 -0.211753E-04  0.212E+00    1.89       1.0  T
   3     -6.4383714  0.767897E-03  0.366E-01    1.87       1.0  T
   4     -6.4391826 -0.811195E-03  0.115E-01    1.89       1.0  T
   5     -6.4391870 -0.443020E-05  0.550E-02    1.89       1.0  T
   6     -6.4391921 -0.508194E-05  0.263E-02    1.89       1.6  T
   7     -6.4391924 -0.301147E-06  0.141E-02    1.89       2.9  T
   8     -6.4391925 -0.985752E-07  0.142E-03    1.89      28.8  T
   9     -6.4391925 -0.252713E-08  0.201E-04    1.89     203.6  T
  10     -6.4391925 -0.319922E-10  0.828E-05    1.89     493.1  T
     SCC iter.                  ...        0 min,  0.001 sec
     gradient                   ...        0 min,  0.000 sec
 * total energy  :    -6.2700570 Eh     change       -0.9735491E-03 Eh
   gradient norm :     0.0186077 Eh/α   predicted    -0.1503325E-02 (  54.42%)
   displ. norm   :     0.0947792 α      lambda       -0.9783464E-03
   maximum displ.:     0.0435848 α      in ANC's #8, #2, #4, ...

........................................................................
.............................. CYCLE   17 ..............................
........................................................................
   1     -6.4417320 -0.644173E+01  0.460E-01    1.85       0.0  T
   2     -6.4417072  0.248504E-04  0.325E-01    1.83       1.0  T
   3     -6.4413402  0.367022E-03  0.297E-01    1.88       1.0  T
   4     -6.4417560 -0.415884E-03  0.549E-02    1.85       1.0  T
   5     -6.4417671 -0.110811E-04  0.192E-02    1.85       2.1  T
   6     -6.4417671 -0.930442E-08  0.877E-03    1.85       4.7  T
   7     -6.4417673 -0.155423E-06  0.258E-03    1.85      15.8  T
   8     -6.4417673 -0.190059E-08  0.587E-04    1.85      69.6  T
   9     -6.4417673 -0.430105E-09  0.596E-05    1.85     684.4  T
     SCC iter.                  ...        0 min,  0.001 sec
     gradient                   ...        0 min,  0.000 sec
 * total energy  :    -6.2706676 Eh     change       -0.6106173E-03 Eh
   gradient norm :     0.0068287 Eh/α   predicted    -0.4935665E-03 ( -19.17%)
   displ. norm   :     0.1717604 α      lambda       -0.3256286E-03
   maximum displ.:     0.1189101 α      in ANC's #3, #8, #6, ...

........................................................................
.............................. CYCLE   18 ..............................
........................................................................
   1     -6.4397499 -0.643975E+01  0.122E+00    1.84       0.0  T
   2     -6.4397552 -0.523578E-05  0.795E-01    1.83       1.0  T
   3     -6.4397412  0.139398E-04  0.895E-02    1.85       1.0  T
   4     -6.4397593 -0.180420E-04  0.453E-02    1.84       1.0  T
   5     -6.4397553  0.394264E-05  0.398E-02    1.84       1.0  T
   6     -6.4397615 -0.613991E-05  0.102E-02    1.84       4.0  T
   7     -6.4397615 -0.527881E-07  0.471E-03    1.84       8.7  T
   8     -6.4397615 -0.495421E-08  0.191E-04    1.84     213.9  T
   9     -6.4397615 -0.225668E-10  0.422E-05    1.84     966.6  T
     SCC iter.                  ...        0 min,  0.001 sec
     gradient                   ...        0 min,  0.000 sec
 * total energy  :    -6.2708729 Eh     change       -0.2053124E-03 Eh
   gradient norm :     0.0056123 Eh/α   predicted    -0.1676159E-03 ( -18.36%)
   displ. norm   :     0.1298280 α      lambda       -0.2339349E-03
   maximum displ.:     0.0625067 α      in ANC's #3, #1, #8, ...

........................................................................
.............................. CYCLE   19 ..............................
........................................................................
   1     -6.4417155 -0.644172E+01  0.866E-01    1.82       0.0  T
   2     -6.4417161 -0.618188E-06  0.562E-01    1.81       1.0  T
   3     -6.4414983  0.217860E-03  0.214E-01    1.84       1.0  T
   4     -6.4417230 -0.224741E-03  0.426E-02    1.82       1.0  T
   5     -6.4417264 -0.340815E-05  0.295E-02    1.82       1.4  T
   6     -6.4417271 -0.668476E-06  0.933E-03    1.82       4.4  T
   7     -6.4417272 -0.756984E-07  0.330E-03    1.82      12.4  T
   8     -6.4417272 -0.223557E-08  0.770E-04    1.82      53.0  T
   9     -6.4417272 -0.643829E-09  0.550E-05    1.82     742.0  T
     SCC iter.                  ...        0 min,  0.001 sec
     gradient                   ...        0 min,  0.001 sec
 * total energy  :    -6.2710065 Eh     change       -0.1335942E-03 Eh
   gradient norm :     0.0061294 Eh/α   predicted    -0.1189393E-03 ( -10.97%)
   displ. norm   :     0.1177648 α      lambda       -0.8831789E-04
   maximum displ.:     0.0742184 α      in ANC's #3, #6, #12, ...

........................................................................
.............................. CYCLE   20 ..............................
........................................................................
   1     -6.4419386 -0.644194E+01  0.756E-01    1.83       0.0  T
   2     -6.4419399 -0.130146E-05  0.504E-01    1.84       1.0  T
   3     -6.4418508  0.890736E-04  0.132E-01    1.82       1.0  T
   4     -6.4419436 -0.927528E-04  0.344E-02    1.83       1.2  T
   5     -6.4419444 -0.807361E-06  0.266E-02    1.83       1.5  T
   6     -6.4419451 -0.727079E-06  0.643E-03    1.83       6.4  T
   7     -6.4419451 -0.933479E-08  0.319E-03    1.83      12.8  T
   8     -6.4419451 -0.379790E-08  0.277E-04    1.83     147.5  T
   9     -6.4419451 -0.930749E-10  0.308E-05    1.83    1324.9  T
     SCC iter.                  ...        0 min,  0.001 sec
     gradient                   ...        0 min,  0.000 sec
 * total energy  :    -6.2710550 Eh     change       -0.4852028E-04 Eh
   gradient norm :     0.0044997 Eh/α   predicted    -0.4477192E-04 (  -7.73%)
   displ. norm   :     0.0512246 α      lambda       -0.6380136E-04
   maximum displ.:     0.0262997 α      in ANC's #11, #12, #6, ...
 * RMSD in coord.:     2.0766573 α      energy gain  -0.4173920E+00 Eh

generating ANC from model Hessian ...
Using Lindh-Hessian (1995)
 Shifting diagonal of input Hessian by    1.0094091137958236E-002
 Lowest  eigenvalues of input Hessian
    0.010000    0.010044    0.000000    0.000000    0.000000    0.000000
    0.000000    0.000000    0.010165    0.010314    0.010490    0.010614
    0.145751    0.256294    0.502918    0.585447    0.732203    2.316050
 Highest eigenvalues
    0.145751    0.256294    0.502918    0.585447    0.732203    2.316050


........................................................................
.............................. CYCLE   21 ..............................
........................................................................
   1     -6.4425226 -0.644252E+01  0.249E-01    1.83       0.0  T
   2     -6.4425225  0.882868E-07  0.162E-01    1.82       1.0  T
   3     -6.4424966  0.258561E-04  0.703E-02    1.84       1.0  T
   4     -6.4425234 -0.268163E-04  0.143E-02    1.83       2.8  T
   5     -6.4425236 -0.157209E-06  0.103E-02    1.83       4.0  T
   6     -6.4425237 -0.986098E-07  0.300E-03    1.83      13.6  T
   7     -6.4425237 -0.504700E-08  0.116E-03    1.83      35.2  T
   8     -6.4425237 -0.282300E-09  0.239E-04    1.83     170.5  T
   9     -6.4425237 -0.624549E-10  0.147E-05    1.83    2778.1  T
     SCC iter.                  ...        0 min,  0.013 sec
     gradient                   ...        0 min,  0.001 sec
 * total energy  :    -6.2711022 Eh     change       -0.4718170E-04 Eh
   gradient norm :     0.0051858 Eh/α   predicted     0.0000000E+00 (-100.00%)
   displ. norm   :     0.0586306 α      lambda       -0.5343312E-04
   maximum displ.:     0.0391753 α      in ANC's #2, #5, #4, ...

........................................................................
.............................. CYCLE   22 ..............................
........................................................................
   1     -6.4429252 -0.644293E+01  0.254E-01    1.83       0.0  T
   2     -6.4429255 -0.249555E-06  0.164E-01    1.83       1.0  T
   3     -6.4429215  0.398164E-05  0.306E-02    1.83       1.3  T
   4     -6.4429256 -0.412600E-05  0.155E-02    1.83       2.6  T
   5     -6.4429257 -0.133820E-06  0.768E-03    1.83       5.3  T
   6     -6.4429259 -0.142328E-06  0.274E-03    1.83      14.9  T
   7     -6.4429259 -0.272543E-08  0.121E-03    1.83      33.6  T
   8     -6.4429259 -0.433136E-09  0.176E-04    1.83     232.5  T
   9     -6.4429259 -0.318705E-10  0.277E-05    1.83    1475.6  T
     SCC iter.                  ...        0 min,  0.002 sec
     gradient                   ...        0 min,  0.000 sec
 * total energy  :    -6.2711158 Eh     change       -0.1358406E-04 Eh
   gradient norm :     0.0020577 Eh/α   predicted    -0.2680697E-04 (  97.34%)
   displ. norm   :     0.0780692 α      lambda       -0.7382948E-04
   maximum displ.:     0.0484550 α      in ANC's #3, #4, #2, ...

........................................................................
.............................. CYCLE   23 ..............................
........................................................................
   1     -6.4433302 -0.644333E+01  0.208E-01    1.83       0.0  T
   2     -6.4433302  0.863821E-07  0.129E-01    1.83       1.0  T
   3     -6.4433189  0.112394E-04  0.438E-02    1.83       1.0  T
   4     -6.4433307 -0.117402E-04  0.106E-02    1.83       3.9  T
   5     -6.4433307 -0.226735E-07  0.255E-03    1.83      16.0  T
   6     -6.4433307 -0.630694E-08  0.188E-03    1.83      21.7  T
   7     -6.4433307 -0.298484E-08  0.963E-04    1.83      42.4  T
   8     -6.4433307 -0.352814E-09  0.155E-04    1.83     264.1  T
     SCC iter.                  ...        0 min,  0.001 sec
     gradient                   ...        0 min,  0.000 sec
 * total energy  :    -6.2711560 Eh     change       -0.4018568E-04 Eh
   gradient norm :     0.0060318 Eh/α   predicted    -0.3714022E-04 (  -7.58%)
   displ. norm   :     0.0601233 α      lambda       -0.3326499E-04
   maximum displ.:     0.0338878 α      in ANC's #4, #2, #6, ...

........................................................................
.............................. CYCLE   24 ..............................
........................................................................
   1     -6.4425294 -0.644253E+01  0.134E-01    1.83       0.0  T
   2     -6.4425294 -0.900415E-08  0.807E-02    1.83       1.0  T
   3     -6.4425289  0.487106E-06  0.101E-02    1.83       4.1  T
   4     -6.4425295 -0.503352E-06  0.428E-03    1.83       9.5  T
   5     -6.4425295 -0.343184E-08  0.334E-03    1.83      12.2  T
   6     -6.4425295 -0.175776E-07  0.780E-04    1.83      52.3  T
   7     -6.4425295 -0.384794E-09  0.374E-04    1.83     109.3  T
     SCC iter.                  ...        0 min,  0.001 sec
     gradient                   ...        0 min,  0.000 sec
 * total energy  :    -6.2711832 Eh     change       -0.2716837E-04 Eh
   gradient norm :     0.0034574 Eh/α   predicted    -0.1669404E-04 ( -38.55%)
   displ. norm   :     0.1299770 α      lambda       -0.6321035E-04
   maximum displ.:     0.0764439 α      in ANC's #4, #6, #2, ...

........................................................................
.............................. CYCLE   25 ..............................
........................................................................
   1     -6.4418266 -0.644183E+01  0.299E-01    1.82       0.0  T
   2     -6.4418268 -0.150221E-06  0.186E-01    1.82       1.0  T
   3     -6.4418234  0.340555E-05  0.297E-02    1.82       1.4  T
   4     -6.4418269 -0.354485E-05  0.165E-02    1.82       2.5  T
   5     -6.4418271 -0.189509E-06  0.490E-03    1.82       8.3  T
   6     -6.4418272 -0.395845E-07  0.274E-03    1.82      14.9  T
   7     -6.4418272 -0.522073E-08  0.134E-03    1.82      30.5  T
   8     -6.4418272 -0.623453E-09  0.277E-04    1.82     147.3  T
   9     -6.4418272 -0.827978E-10  0.151E-05    1.82    2708.4  T
     SCC iter.                  ...        0 min,  0.001 sec
     gradient                   ...        0 min,  0.001 sec
 * total energy  :    -6.2712268 Eh     change       -0.4359777E-04 Eh
   gradient norm :     0.0039618 Eh/α   predicted    -0.3213895E-04 ( -26.28%)
   displ. norm   :     0.1061760 α      lambda       -0.4375770E-04
   maximum displ.:     0.0678787 α      in ANC's #6, #4, #2, ...

........................................................................
.............................. CYCLE   26 ..............................
........................................................................
   1     -6.4423646 -0.644236E+01  0.212E-01    1.82       0.0  T
   2     -6.4423647 -0.117447E-06  0.135E-01    1.82       1.0  T
   3     -6.4423612  0.349990E-05  0.284E-02    1.82       1.4  T
   4     -6.4423649 -0.369922E-05  0.135E-02    1.82       3.0  T
   5     -6.4423650 -0.628351E-07  0.515E-03    1.82       7.9  T
   6     -6.4423650 -0.619568E-07  0.234E-03    1.82      17.4  T
   7     -6.4423650 -0.248052E-08  0.102E-03    1.82      40.2  T
   8     -6.4423650 -0.293347E-09  0.149E-04    1.82     273.6  T
   9     -6.4423650 -0.259304E-10  0.135E-05    1.82    3022.3  T
     SCC iter.                  ...        0 min,  0.001 sec
     gradient                   ...        0 min,  0.000 sec
 * total energy  :    -6.2712547 Eh     change       -0.2795854E-04 Eh
   gradient norm :     0.0047363 Eh/α   predicted    -0.2212560E-04 ( -20.86%)
   displ. norm   :     0.3086445 α      lambda       -0.7757448E-04
   maximum displ.:     0.1998894 α      in ANC's #4, #6, #2, ...

........................................................................
.............................. CYCLE   27 ..............................
........................................................................
   1     -6.4394546 -0.643945E+01  0.648E-01    1.83       0.0  T
   2     -6.4394556 -0.944479E-06  0.400E-01    1.83       1.0  T
   3     -6.4394533  0.229570E-05  0.471E-02    1.82       1.0  T
   4     -6.4394550 -0.174521E-05  0.356E-02    1.83       1.1  T
   5     -6.4394549  0.138891E-06  0.208E-02    1.83       2.0  T
   6     -6.4394568 -0.197422E-05  0.568E-03    1.83       7.2  T
   7     -6.4394569 -0.151582E-07  0.305E-03    1.83      13.4  T
   8     -6.4394569 -0.308867E-08  0.161E-04    1.83     254.0  T
   9     -6.4394569 -0.467182E-11  0.384E-05    1.83    1063.5  T
     SCC iter.                  ...        0 min,  0.001 sec
     gradient                   ...        0 min,  0.000 sec
 * total energy  :    -6.2711279 Eh     change        0.1268043E-03 Eh
   gradient norm :     0.0130572 Eh/α   predicted    -0.4248351E-04 (-133.50%)
   displ. norm   :     0.1913490 α      lambda       -0.4440644E-03
   maximum displ.:     0.1186541 α      in ANC's #4, #2, #6, ...

........................................................................
.............................. CYCLE   28 ..............................
........................................................................
   1     -6.4431870 -0.644319E+01  0.453E-01    1.82       0.0  T
   2     -6.4431873 -0.366920E-06  0.279E-01    1.82       1.0  T
   3     -6.4431851  0.220123E-05  0.339E-02    1.83       1.2  T
   4     -6.4431871 -0.198860E-05  0.242E-02    1.82       1.7  T
   5     -6.4431874 -0.290864E-06  0.119E-02    1.83       3.4  T
   6     -6.4431879 -0.514619E-06  0.364E-03    1.83      11.2  T
   7     -6.4431879 -0.563515E-08  0.197E-03    1.83      20.8  T
   8     -6.4431879 -0.121483E-08  0.151E-04    1.83     270.3  T
   9     -6.4431879 -0.252784E-10  0.163E-05    1.83    2501.0  T
     SCC iter.                  ...        0 min,  0.003 sec
     gradient                   ...        0 min,  0.000 sec
 * total energy  :    -6.2712788 Eh     change       -0.1509087E-03 Eh
   gradient norm :     0.0012259 Eh/α   predicted    -0.2301629E-03 (  52.52%)
   displ. norm   :     0.0539281 α      lambda       -0.9331867E-05
   maximum displ.:     0.0447852 α      in ANC's #4, #6, #1, ...

........................................................................
.............................. CYCLE   29 ..............................
........................................................................
   1     -6.4429311 -0.644293E+01  0.119E-01    1.83       0.0  T
   2     -6.4429311 -0.202960E-07  0.735E-02    1.83       1.0  T
   3     -6.4429309  0.256098E-06  0.933E-03    1.82       4.4  T
   4     -6.4429311 -0.231406E-06  0.634E-03    1.83       6.4  T
   5     -6.4429311 -0.352979E-07  0.301E-03    1.83      13.5  T
   6     -6.4429312 -0.278578E-07  0.962E-04    1.83      42.4  T
   7     -6.4429312 -0.361545E-09  0.476E-04    1.83      85.7  T
     SCC iter.                  ...        0 min,  0.008 sec
     gradient                   ...        0 min,  0.001 sec
 * total energy  :    -6.2712916 Eh     change       -0.1282744E-04 Eh
   gradient norm :     0.0010538 Eh/α   predicted    -0.4673370E-05 ( -63.57%)
   displ. norm   :     0.4282453 α      lambda       -0.6064069E-04
   maximum displ.:     0.3628788 α      in ANC's #4, #6, #1, ...

........................................................................
.............................. CYCLE   30 ..............................
........................................................................
   1     -6.4366762 -0.643668E+01  0.924E-01    1.82       0.0  T
   2     -6.4366771 -0.838013E-06  0.562E-01    1.83       1.0  T
   3     -6.4366613  0.158005E-04  0.679E-02    1.82       1.0  T
   4     -6.4366768 -0.155566E-04  0.407E-02    1.82       1.0  T
   5     -6.4366774 -0.527099E-06  0.236E-02    1.82       1.7  T
   6     -6.4366790 -0.160259E-05  0.640E-03    1.82       6.4  T
   7     -6.4366790 -0.197446E-07  0.369E-03    1.82      11.1  T
   8     -6.4366790 -0.460611E-08  0.288E-04    1.82     141.5  T
   9     -6.4366790 -0.272413E-10  0.252E-05    1.82    1622.2  T
     SCC iter.                  ...        0 min,  0.007 sec
     gradient                   ...        0 min,  0.001 sec
 * total energy  :    -6.2708473 Eh     change        0.4443263E-03 Eh
   gradient norm :     0.0218176 Eh/α   predicted    -0.3279089E-04 (-107.38%)
   displ. norm   :     0.2122589 α      lambda       -0.9777639E-03
   maximum displ.:     0.1917461 α      in ANC's #4, #6, #1, ...

........................................................................
.............................. CYCLE   31 ..............................
........................................................................
   1     -6.4417067 -0.644171E+01  0.511E-01    1.82       0.0  T
   2     -6.4417068 -0.193718E-06  0.310E-01    1.82       1.0  T
   3     -6.4417031  0.371269E-05  0.334E-02    1.83       1.2  T
   4     -6.4417068 -0.368921E-05  0.194E-02    1.82       2.1  T
   5     -6.4417068  0.585250E-07  0.133E-02    1.82       3.1  T
   6     -6.4417073 -0.529555E-06  0.298E-03    1.82      13.7  T
   7     -6.4417073 -0.376398E-08  0.173E-03    1.82      23.7  T
   8     -6.4417073 -0.911510E-09  0.198E-04    1.82     206.6  T
   9     -6.4417073 -0.283329E-10  0.255E-05    1.82    1598.3  T
     SCC iter.                  ...        0 min,  0.001 sec
     gradient                   ...        0 min,  0.001 sec
 * total energy  :    -6.2713046 Eh     change       -0.4573233E-03 Eh
   gradient norm :     0.0052347 Eh/α   predicted    -0.5109065E-03 (  11.72%)
   displ. norm   :     0.0161987 α      lambda       -0.2046363E-04
   maximum displ.:     0.0105846 α      in ANC's #2, #4, #6, ...

........................................................................
.............................. CYCLE   32 ..............................
........................................................................
   1     -6.4422746 -0.644227E+01  0.439E-02    1.82       0.0  T
   2     -6.4422746 -0.582960E-08  0.273E-02    1.82       1.5  T
   3     -6.4422746  0.945665E-08  0.355E-03    1.82      11.5  T
   4     -6.4422746 -0.111549E-07  0.244E-03    1.82      16.7  T
   5     -6.4422746  0.970394E-08  0.169E-03    1.82      24.1  T
   6     -6.4422746 -0.151879E-07  0.430E-04    1.82      95.0  T
   7     -6.4422746 -0.651941E-10  0.134E-04    1.82     305.0  T
     SCC iter.                  ...        0 min,  0.001 sec
     gradient                   ...        0 min,  0.001 sec
 * total energy  :    -6.2713207 Eh     change       -0.1607840E-04 Eh
   gradient norm :     0.0032887 Eh/α   predicted    -0.1023454E-04 ( -36.35%)
   displ. norm   :     0.0239808 α      lambda       -0.2174070E-04
   maximum displ.:     0.0155777 α      in ANC's #6, #2, #7, ...

........................................................................
.............................. CYCLE   33 ..............................
........................................................................
   1     -6.4429295 -0.644293E+01  0.887E-02    1.82       0.0  T
   2     -6.4429295 -0.318073E-07  0.556E-02    1.82       1.0  T
   3     -6.4429294  0.123686E-06  0.812E-03    1.82       5.0  T
   4     -6.4429295 -0.116952E-06  0.573E-03    1.82       7.1  T
   5     -6.4429295 -0.798382E-08  0.323E-03    1.82      12.6  T
   6     -6.4429296 -0.400964E-07  0.977E-04    1.82      41.8  T
   7     -6.4429296 -0.312431E-09  0.355E-04    1.82     114.9  T
     SCC iter.                  ...        0 min,  0.001 sec
     gradient                   ...        0 min,  0.000 sec
 * total energy  :    -6.2713341 Eh     change       -0.1336926E-04 Eh
   gradient norm :     0.0008040 Eh/α   predicted    -0.1087762E-04 ( -18.64%)
   displ. norm   :     0.0299834 α      lambda       -0.6553310E-05
   maximum displ.:     0.0180723 α      in ANC's #6, #4, #1, ...

........................................................................
.............................. CYCLE   34 ..............................
........................................................................
   1     -6.4431618 -0.644316E+01  0.987E-02    1.82       0.0  T
   2     -6.4431618 -0.292626E-07  0.606E-02    1.82       1.0  T
   3     -6.4431618  0.232233E-07  0.609E-03    1.82       6.7  T
   4     -6.4431617  0.481673E-07  0.569E-03    1.82       7.2  T
   5     -6.4431618 -0.947049E-07  0.150E-03    1.82      27.2  T
   6     -6.4431618 -0.467713E-08  0.905E-04    1.82      45.1  T
   7     -6.4431618 -0.529340E-09  0.393E-04    1.82     104.0  T
     SCC iter.                  ...        0 min,  0.001 sec
     gradient                   ...        0 min,  0.000 sec
 * total energy  :    -6.2713420 Eh     change       -0.7954015E-05 Eh
   gradient norm :     0.0007665 Eh/α   predicted    -0.3277807E-05 ( -58.79%)
   displ. norm   :     0.1237143 α      lambda       -0.2308605E-04
   maximum displ.:     0.0768627 α      in ANC's #4, #6, #1, ...

........................................................................
.............................. CYCLE   35 ..............................
........................................................................
   1     -6.4424840 -0.644248E+01  0.381E-01    1.82       0.0  T
   2     -6.4424842 -0.212787E-06  0.231E-01    1.82       1.0  T
   3     -6.4424795  0.475142E-05  0.325E-02    1.82       1.3  T
   4     -6.4424842 -0.475029E-05  0.163E-02    1.82       2.5  T
   5     -6.4424844 -0.204805E-06  0.944E-03    1.82       4.3  T
   6     -6.4424847 -0.218934E-06  0.252E-03    1.82      16.2  T
   7     -6.4424847 -0.205477E-08  0.150E-03    1.82      27.2  T
   8     -6.4424847 -0.719764E-09  0.187E-04    1.82     218.5  T
   9     -6.4424847 -0.101883E-10  0.259E-05    1.82    1576.5  T
     SCC iter.                  ...        0 min,  0.001 sec
     gradient                   ...        0 min,  0.000 sec
 * total energy  :    -6.2713679 Eh     change       -0.2583190E-04 Eh
   gradient norm :     0.0020928 Eh/α   predicted    -0.1162308E-04 ( -55.00%)
   displ. norm   :     0.0914054 α      lambda       -0.1776055E-04
   maximum displ.:     0.0640146 α      in ANC's #4, #1, #2, ...

........................................................................
.............................. CYCLE   36 ..............................
........................................................................
   1     -6.4418853 -0.644189E+01  0.259E-01    1.82       0.0  T
   2     -6.4418854 -0.946879E-07  0.158E-01    1.82       1.0  T
   3     -6.4418833  0.216285E-05  0.221E-02    1.82       1.8  T
   4     -6.4418852 -0.195057E-05  0.133E-02    1.82       3.1  T
   5     -6.4418855 -0.240259E-06  0.802E-03    1.82       5.1  T
   6     -6.4418856 -0.157041E-06  0.142E-03    1.82      28.8  T
   7     -6.4418856 -0.461926E-09  0.871E-04    1.82      46.8  T
   8     -6.4418856 -0.242348E-09  0.114E-04    1.82     357.0  T
     SCC iter.                  ...        0 min,  0.002 sec
     gradient                   ...        0 min,  0.001 sec
 * total energy  :    -6.2713773 Eh     change       -0.9450477E-05 Eh
   gradient norm :     0.0039927 Eh/α   predicted    -0.8952974E-05 (  -5.26%)
   displ. norm   :     0.0558584 α      lambda       -0.2099573E-04
   maximum displ.:     0.0364688 α      in ANC's #1, #4, #5, ...

........................................................................
.............................. CYCLE   37 ..............................
........................................................................
   1     -6.4422237 -0.644222E+01  0.143E-01    1.82       0.0  T
   2     -6.4422237 -0.757288E-07  0.898E-02    1.82       1.0  T
   3     -6.4422237  0.449304E-07  0.109E-02    1.82       3.7  T
   4     -6.4422237 -0.417862E-07  0.911E-03    1.82       4.5  T
   5     -6.4422238 -0.420548E-07  0.305E-03    1.82      13.4  T
   6     -6.4422238 -0.377870E-07  0.158E-03    1.82      25.9  T
   7     -6.4422238 -0.280112E-08  0.598E-04    1.82      68.2  T
   8     -6.4422238 -0.126689E-09  0.575E-05    1.82     710.2  T
     SCC iter.                  ...        0 min,  0.001 sec
     gradient                   ...        0 min,  0.000 sec
 * total energy  :    -6.2713958 Eh     change       -0.1852017E-04 Eh
   gradient norm :     0.0033977 Eh/α   predicted    -0.1052954E-04 ( -43.15%)
   displ. norm   :     0.2386156 α      lambda       -0.7314204E-04
   maximum displ.:     0.1684408 α      in ANC's #1, #4, #5, ...

........................................................................
.............................. CYCLE   38 ..............................
........................................................................
   1     -6.4414483 -0.644145E+01  0.618E-01    1.82       0.0  T
   2     -6.4414496 -0.128116E-05  0.385E-01    1.82       1.0  T
   3     -6.4414478  0.184930E-05  0.467E-02    1.82       1.0  T
   4     -6.4414476  0.113035E-06  0.429E-02    1.83       1.0  T
   5     -6.4414487 -0.100676E-05  0.218E-02    1.82       1.9  T
   6     -6.4414509 -0.228433E-05  0.610E-03    1.82       6.7  T
   7     -6.4414510 -0.146958E-07  0.321E-03    1.82      12.7  T
   8     -6.4414510 -0.381023E-08  0.260E-04    1.82     156.9  T
   9     -6.4414510 -0.188924E-10  0.209E-05    1.82    1950.0  T
     SCC iter.                  ...        0 min,  0.001 sec
     gradient                   ...        0 min,  0.001 sec
 * total energy  :    -6.2714425 Eh     change       -0.4666968E-04 Eh
   gradient norm :     0.0047789 Eh/α   predicted    -0.3865171E-04 ( -17.18%)
   displ. norm   :     0.1415792 α      lambda       -0.9182622E-04
   maximum displ.:     0.1207648 α      in ANC's #1, #5, #10, ...

........................................................................
.............................. CYCLE   39 ..............................
........................................................................
   1     -6.4435747 -0.644357E+01  0.446E-01    1.83       0.0  T
   2     -6.4435757 -0.101884E-05  0.289E-01    1.83       1.0  T
   3     -6.4435756  0.144193E-06  0.342E-02    1.83       1.2  T
   4     -6.4435744  0.121153E-05  0.301E-02    1.83       1.4  T
   5     -6.4435762 -0.187010E-05  0.142E-02    1.83       2.9  T
   6     -6.4435769 -0.642799E-06  0.581E-03    1.83       7.0  T
   7     -6.4435769 -0.184074E-07  0.219E-03    1.83      18.6  T
   8     -6.4435769 -0.145052E-08  0.187E-04    1.83     218.7  T
   9     -6.4435769 -0.164224E-10  0.263E-05    1.83    1553.7  T
     SCC iter.                  ...        0 min,  0.001 sec
     gradient                   ...        0 min,  0.000 sec
 * total energy  :    -6.2714743 Eh     change       -0.3177162E-04 Eh
   gradient norm :     0.0039351 Eh/α   predicted    -0.4683266E-04 (  47.40%)
   displ. norm   :     0.2369519 α      lambda       -0.6944296E-04
   maximum displ.:     0.1865157 α      in ANC's #1, #4, #5, ...

........................................................................
.............................. CYCLE   40 ..............................
........................................................................
   1     -6.4410220 -0.644102E+01  0.636E-01    1.83       0.0  T
   2     -6.4410234 -0.142575E-05  0.400E-01    1.83       1.0  T
   3     -6.4410202  0.322130E-05  0.523E-02    1.82       1.0  T
   4     -6.4410197  0.465329E-06  0.483E-02    1.83       1.0  T
   5     -6.4410232 -0.347764E-05  0.217E-02    1.83       1.9  T
   6     -6.4410250 -0.182324E-05  0.677E-03    1.83       6.0  T
   7     -6.4410250 -0.186758E-07  0.340E-03    1.83      12.0  T
   8     -6.4410250 -0.408070E-08  0.261E-04    1.83     156.6  T
   9     -6.4410250 -0.164775E-10  0.194E-05    1.83    2100.3  T
     SCC iter.                  ...        0 min,  0.001 sec
     gradient                   ...        0 min,  0.000 sec
 * total energy  :    -6.2714995 Eh     change       -0.2522130E-04 Eh
   gradient norm :     0.0056323 Eh/α   predicted    -0.3666991E-04 (  45.39%)
   displ. norm   :     0.1094999 α      lambda       -0.6859630E-04
   maximum displ.:     0.0679296 α      in ANC's #6, #4, #1, ...

........................................................................
.............................. CYCLE   41 ..............................
........................................................................
   1     -6.4424177 -0.644242E+01  0.252E-01    1.82       0.0  T
   2     -6.4424177 -0.801736E-07  0.165E-01    1.81       1.0  T
   3     -6.4423959  0.218485E-04  0.666E-02    1.82       1.0  T
   4     -6.4424181 -0.222533E-04  0.197E-02    1.82       2.1  T
   5     -6.4424186 -0.496279E-06  0.145E-02    1.82       2.8  T
   6     -6.4424189 -0.284431E-06  0.365E-03    1.82      11.2  T
   7     -6.4424189 -0.770895E-08  0.144E-03    1.82      28.3  T
   8     -6.4424189 -0.622598E-09  0.272E-04    1.82     150.2  T
   9     -6.4424189 -0.576161E-10  0.352E-05    1.82    1158.4  T
     SCC iter.                  ...        0 min,  0.001 sec
     gradient                   ...        0 min,  0.000 sec
 * total energy  :    -6.2715406 Eh     change       -0.4113119E-04 Eh
   gradient norm :     0.0025174 Eh/α   predicted    -0.3471081E-04 ( -15.61%)
   displ. norm   :     0.2095177 α      lambda       -0.6026111E-04
   maximum displ.:     0.1545232 α      in ANC's #6, #1, #2, ...

........................................................................
.............................. CYCLE   42 ..............................
........................................................................
   1     -6.4423235 -0.644232E+01  0.377E-01    1.81       0.0  T
   2     -6.4423239 -0.422794E-06  0.236E-01    1.81       1.0  T
   3     -6.4423195  0.434972E-05  0.415E-02    1.81       1.0  T
   4     -6.4423241 -0.462380E-05  0.227E-02    1.81       1.8  T
   5     -6.4423238  0.345394E-06  0.126E-02    1.81       3.2  T
   6     -6.4423245 -0.685083E-06  0.381E-03    1.81      10.7  T
   7     -6.4423245 -0.518246E-08  0.190E-03    1.81      21.4  T
   8     -6.4423245 -0.115749E-08  0.313E-04    1.81     130.6  T
   9     -6.4423245 -0.767626E-10  0.372E-05    1.81    1097.1  T
     SCC iter.                  ...        0 min,  0.002 sec
     gradient                   ...        0 min,  0.001 sec
 * total energy  :    -6.2715921 Eh     change       -0.5143790E-04 Eh
   gradient norm :     0.0049303 Eh/α   predicted    -0.3145139E-04 ( -38.86%)
   displ. norm   :     0.5711593 α      lambda       -0.1543336E-03
   maximum displ.:     0.4015143 α      in ANC's #6, #1, #2, ...
 * RMSD in coord.:     0.6729057 α      energy gain  -0.5370410E-03 Eh

generating ANC from model Hessian ...
Using Lindh-Hessian (1995)
 Shifting diagonal of input Hessian by    1.0045212126201101E-002
 Lowest  eigenvalues of input Hessian
    0.010000    0.010037    0.000000    0.000000    0.000000    0.000000
    0.000000    0.000000    0.010051    0.010263    0.010338    0.010832
    0.150276    0.256625    0.496536    0.540512    0.731298    2.313548
 Highest eigenvalues
    0.150276    0.256625    0.496536    0.540512    0.731298    2.313548


........................................................................
.............................. CYCLE   43 ..............................
........................................................................
   1     -6.4402505 -0.644025E+01  0.105E+00    1.80       0.0  T
   2     -6.4402550 -0.452155E-05  0.670E-01    1.81       1.0  T
   3     -6.4402451  0.986881E-05  0.857E-02    1.80       1.0  T
   4     -6.4402465 -0.141854E-05  0.774E-02    1.81       1.0  T
   5     -6.4402545 -0.799278E-05  0.373E-02    1.80       1.1  T
   6     -6.4402598 -0.532730E-05  0.117E-02    1.80       3.5  T
   7     -6.4402599 -0.595480E-07  0.572E-03    1.80       7.1  T
   8     -6.4402599 -0.111553E-07  0.847E-04    1.80      48.2  T
   9     -6.4402599 -0.239193E-09  0.144E-04    1.80     282.8  T
     SCC iter.                  ...        0 min,  0.001 sec
     gradient                   ...        0 min,  0.000 sec
 * total energy  :    -6.2716689 Eh     change       -0.7685188E-04 Eh
   gradient norm :     0.0100387 Eh/α   predicted     0.0000000E+00 (-100.00%)
   displ. norm   :     0.0678330 α      lambda       -0.1914440E-03
   maximum displ.:     0.0505294 α      in ANC's #3, #6, #2, ...

........................................................................
.............................. CYCLE   44 ..............................
........................................................................
   1     -6.4429502 -0.644295E+01  0.200E-01    1.81       0.0  T
   2     -6.4429503 -0.266923E-07  0.121E-01    1.81       1.0  T
   3     -6.4429476  0.262934E-05  0.227E-02    1.81       1.8  T
   4     -6.4429504 -0.273681E-05  0.695E-03    1.81       5.9  T
   5     -6.4429504 -0.641539E-08  0.478E-03    1.81       8.5  T
   6     -6.4429504 -0.420348E-07  0.795E-04    1.81      51.3  T
   7     -6.4429504 -0.251022E-09  0.509E-04    1.81      80.3  T
     SCC iter.                  ...        0 min,  0.001 sec
     gradient                   ...        0 min,  0.001 sec
 * total energy  :    -6.2717814 Eh     change       -0.1124410E-03 Eh
   gradient norm :     0.0018639 Eh/α   predicted    -0.9616291E-04 ( -14.48%)
   displ. norm   :     0.1559876 α      lambda       -0.9539611E-04
   maximum displ.:     0.0953707 α      in ANC's #3, #4, #5, ...

........................................................................
.............................. CYCLE   45 ..............................
........................................................................
   1     -6.4429249 -0.644292E+01  0.469E-01    1.81       0.0  T
   2     -6.4429260 -0.102660E-05  0.294E-01    1.81       1.0  T
   3     -6.4429258  0.167119E-06  0.342E-02    1.81       1.2  T
   4     -6.4429246  0.113628E-05  0.328E-02    1.81       1.2  T
   5     -6.4429261 -0.142861E-05  0.141E-02    1.81       2.9  T
   6     -6.4429269 -0.864658E-06  0.477E-03    1.81       8.6  T
   7     -6.4429270 -0.102396E-07  0.235E-03    1.81      17.4  T
   8     -6.4429270 -0.223166E-08  0.207E-04    1.81     197.2  T
   9     -6.4429270 -0.815170E-11  0.570E-05    1.81     716.6  T
     SCC iter.                  ...        0 min,  0.001 sec
     gradient                   ...        0 min,  0.000 sec
 * total energy  :    -6.2717246 Eh     change        0.5671740E-04 Eh
   gradient norm :     0.0053311 Eh/α   predicted    -0.4821336E-04 (-185.01%)
   displ. norm   :     0.0716721 α      lambda       -0.1806963E-03
   maximum displ.:     0.0436670 α      in ANC's #4, #3, #6, ...

........................................................................
.............................. CYCLE   46 ..............................
........................................................................
   1     -6.4419952 -0.644200E+01  0.244E-01    1.81       0.0  T
   2     -6.4419955 -0.279224E-06  0.154E-01    1.81       1.0  T
   3     -6.4419942  0.130971E-05  0.215E-02    1.81       1.9  T
   4     -6.4419953 -0.117420E-05  0.149E-02    1.81       2.7  T
   5     -6.4419957 -0.387381E-06  0.432E-03    1.81       9.5  T
   6     -6.4419958 -0.368366E-07  0.238E-03    1.81      17.2  T
   7     -6.4419958 -0.192333E-08  0.113E-03    1.81      36.3  T
   8     -6.4419958 -0.464059E-09  0.146E-04    1.81     279.8  T
   9     -6.4419958 -0.980194E-11  0.315E-05    1.81    1294.7  T
     SCC iter.                  ...        0 min,  0.006 sec
     gradient                   ...        0 min,  0.003 sec
 * total energy  :    -6.2718428 Eh     change       -0.1181151E-03 Eh
   gradient norm :     0.0047452 Eh/α   predicted    -0.9081027E-04 ( -23.12%)
   displ. norm   :     0.0741228 α      lambda       -0.1426736E-03
   maximum displ.:     0.0548868 α      in ANC's #4, #3, #6, ...

........................................................................
.............................. CYCLE   47 ..............................
........................................................................
   1     -6.4435337 -0.644353E+01  0.262E-01    1.80       0.0  T
   2     -6.4435342 -0.444439E-06  0.169E-01    1.80       1.0  T
   3     -6.4435318  0.238349E-05  0.287E-02    1.80       1.4  T
   4     -6.4435343 -0.246245E-05  0.176E-02    1.80       2.3  T
   5     -6.4435346 -0.289609E-06  0.928E-03    1.80       4.4  T
   6     -6.4435347 -0.168206E-06  0.326E-03    1.80      12.5  T
   7     -6.4435347 -0.377656E-08  0.126E-03    1.80      32.4  T
   8     -6.4435347 -0.529234E-09  0.108E-04    1.80     378.2  T
   9     -6.4435347 -0.250910E-11  0.255E-05    1.80    1601.3  T
     SCC iter.                  ...        0 min,  0.003 sec
     gradient                   ...        0 min,  0.002 sec
 * total energy  :    -6.2718480 Eh     change       -0.5186232E-05 Eh
   gradient norm :     0.0047378 Eh/α   predicted    -0.7172981E-04 (1283.08%)
   displ. norm   :     0.0743366 α      lambda       -0.9122861E-04
   maximum displ.:     0.0520452 α      in ANC's #3, #5, #2, ...

........................................................................
.............................. CYCLE   48 ..............................
........................................................................
   1     -6.4424897 -0.644249E+01  0.193E-01    1.81       0.0  T
   2     -6.4424897 -0.394413E-08  0.117E-01    1.80       1.0  T
   3     -6.4424872  0.246863E-05  0.214E-02    1.81       1.9  T
   4     -6.4424898 -0.259813E-05  0.623E-03    1.80       6.6  T
   5     -6.4424898  0.145957E-07  0.471E-03    1.81       8.7  T
   6     -6.4424898 -0.300668E-07  0.138E-03    1.80      29.6  T
   7     -6.4424898 -0.400281E-09  0.700E-04    1.80      58.3  T
   8     -6.4424898 -0.104301E-09  0.126E-04    1.80     323.5  T
     SCC iter.                  ...        0 min,  0.001 sec
     gradient                   ...        0 min,  0.000 sec
 * total energy  :    -6.2719033 Eh     change       -0.5539609E-04 Eh
   gradient norm :     0.0021888 Eh/α   predicted    -0.4586734E-04 ( -17.20%)
   displ. norm   :     0.0505820 α      lambda       -0.1878244E-04
   maximum displ.:     0.0321105 α      in ANC's #5, #6, #3, ...

........................................................................
.............................. CYCLE   49 ..............................
........................................................................
   1     -6.4423142 -0.644231E+01  0.993E-02    1.80       0.0  T
   2     -6.4423142 -0.410304E-08  0.596E-02    1.80       1.0  T
   3     -6.4423138  0.371653E-06  0.806E-03    1.80       5.1  T
   4     -6.4423142 -0.391653E-06  0.128E-03    1.80      31.8  T
   5     -6.4423142 -0.210273E-09  0.651E-04    1.80      62.7  T
   6     -6.4423142 -0.635900E-10  0.516E-04    1.80      79.1  T
[...]

........................................................................
.............................. CYCLE   51 ..............................
........................................................................
   1     -6.4429786 -0.644298E+01  0.157E-01    1.80       0.0  T
   2     -6.4429787 -0.140352E-06  0.957E-02    1.80       1.0  T
   3     -6.4429786  0.181918E-06  0.980E-03    1.80       4.2  T
   4     -6.4429787 -0.161196E-06  0.673E-03    1.80       6.1  T
   5     -6.4429788 -0.369544E-07  0.399E-03    1.80      10.2  T
   6     -6.4429788 -0.528588E-07  0.157E-03    1.80      26.0  T
   7     -6.4429788 -0.140229E-08  0.502E-04    1.80      81.3  T
   8     -6.4429788 -0.725331E-10  0.249E-04    1.80     164.2  T
     SCC iter.                  ...        0 min,  0.001 sec
     gradient                   ...        0 min,  0.000 sec
 * total energy  :    -6.2719883 Eh     change       -0.3357837E-04 Eh
   gradient norm :     0.0015640 Eh/α   predicted    -0.2283092E-04 ( -32.01%)
   displ. norm   :     0.3311582 α      lambda       -0.4503564E-04
   maximum displ.:     0.2266223 α      in ANC's #5, #6, #10, ...

........................................................................
.............................. CYCLE   52 ..............................
........................................................................
   1     -6.4402468 -0.644025E+01  0.512E-01    1.80       0.0  T
   2     -6.4402486 -0.187019E-05  0.315E-01    1.80       1.0  T
   3     -6.4402492 -0.581523E-06  0.303E-02    1.80       1.3  T
   4     -6.4402484  0.832554E-06  0.233E-02    1.80       1.7  T
   5     -6.4402494 -0.102826E-05  0.809E-03    1.80       5.0  T
   6     -6.4402493  0.158866E-06  0.754E-03    1.80       5.4  T
   7     -6.4402495 -0.225423E-06  0.213E-03    1.80      19.1  T
   8     -6.4402495 -0.244715E-08  0.103E-03    1.80      39.7  T
   9     -6.4402495 -0.360004E-09  0.128E-04    1.80     318.6  T
  10     -6.4402495 -0.123777E-10  0.206E-05    1.80    1980.2  T
     SCC iter.                  ...        0 min,  0.002 sec
     gradient                   ...        0 min,  0.000 sec
 * total energy  :    -6.2719408 Eh     change        0.4751123E-04 Eh
   gradient norm :     0.0078554 Eh/α   predicted    -0.2361409E-04 (-149.70%)
   displ. norm   :     0.0629225 α      lambda       -0.1585816E-03
   maximum displ.:     0.0416809 α      in ANC's #3, #6, #5, ...

........................................................................
.............................. CYCLE   53 ..............................
........................................................................
   1     -6.4427761 -0.644278E+01  0.145E-01    1.80       0.0  T
   2     -6.4427761 -0.325023E-07  0.874E-02    1.80       1.0  T
   3     -6.4427755  0.667814E-06  0.116E-02    1.80       3.5  T
   4     -6.4427762 -0.711325E-06  0.262E-03    1.80      15.6  T
   5     -6.4427762  0.552384E-08  0.180E-03    1.80      22.7  T
   6     -6.4427762 -0.836088E-08  0.106E-03    1.80      38.6  T
   7     -6.4427762 -0.355734E-09  0.501E-04    1.80      81.5  T
   8     -6.4427762 -0.481792E-10  0.189E-04    1.80     215.8  T
     SCC iter.                  ...        0 min,  0.001 sec
     gradient                   ...        0 min,  0.000 sec
 * total energy  :    -6.2720066 Eh     change       -0.6578707E-04 Eh
   gradient norm :     0.0019378 Eh/α   predicted    -0.7960341E-04 (  21.00%)
   displ. norm   :     0.1126557 α      lambda       -0.2107596E-04
   maximum displ.:     0.0787254 α      in ANC's #6, #5, #4, ...

........................................................................
.............................. CYCLE   54 ..............................
........................................................................
   1     -6.4429798 -0.644298E+01  0.183E-01    1.80       0.0  T
   2     -6.4429801 -0.310932E-06  0.117E-01    1.80       1.0  T
   3     -6.4429791  0.108547E-05  0.192E-02    1.80       2.1  T
   4     -6.4429801 -0.107280E-05  0.120E-02    1.80       3.4  T
   5     -6.4429803 -0.225189E-06  0.523E-03    1.80       7.8  T
   6     -6.4429804 -0.330901E-07  0.283E-03    1.80      14.4  T
   7     -6.4429804 -0.310379E-08  0.927E-04    1.80      44.0  T
   8     -6.4429804 -0.221070E-09  0.416E-04    1.80      98.2  T
     SCC iter.                  ...        0 min,  0.001 sec
     gradient                   ...        0 min,  0.000 sec
 * total energy  :    -6.2720113 Eh     change       -0.4670135E-05 Eh
   gradient norm :     0.0019505 Eh/α   predicted    -0.1059674E-04 ( 126.90%)
   displ. norm   :     0.0520336 α      lambda       -0.7843800E-05
   maximum displ.:     0.0364417 α      in ANC's #5, #6, #4, ...

........................................................................
.............................. CYCLE   55 ..............................
........................................................................
   1     -6.4428597 -0.644286E+01  0.905E-02    1.80       0.0  T
   2     -6.4428598 -0.605842E-07  0.565E-02    1.80       1.0  T
   3     -6.4428596  0.195365E-06  0.918E-03    1.80       4.4  T
   4     -6.4428597 -0.142145E-06  0.657E-03    1.80       6.2  T
   5     -6.4428598 -0.892570E-07  0.270E-03    1.80      15.1  T
   6     -6.4428598 -0.114728E-07  0.122E-03    1.80      33.4  T
   7     -6.4428598 -0.474620E-09  0.431E-04    1.80      94.8  T
   8     -6.4428598 -0.444933E-10  0.195E-04    1.80     209.8  T
     SCC iter.                  ...        0 min,  0.001 sec
     gradient                   ...        0 min,  0.000 sec
 * total energy  :    -6.2720183 Eh     change       -0.7079045E-05 Eh
   gradient norm :     0.0003552 Eh/α   predicted    -0.3926612E-05 ( -44.53%)
   displ. norm   :     0.0329229 α      lambda       -0.2305174E-05
   maximum displ.:     0.0199937 α      in ANC's #2, #5, #1, ...

........................................................................
.............................. CYCLE   56 ..............................
........................................................................
   1     -6.4428858 -0.644289E+01  0.785E-02    1.80       0.0  T
   2     -6.4428858 -0.370139E-07  0.499E-02    1.80       1.0  T
   3     -6.4428858 -0.278428E-07  0.670E-03    1.80       6.1  T
   4     -6.4428858  0.141908E-07  0.269E-03    1.80      15.2  T
   5     -6.4428858 -0.172697E-07  0.129E-03    1.80      31.8  T
   6     -6.4428858  0.124456E-08  0.998E-04    1.80      40.9  T
   7     -6.4428858 -0.293114E-08  0.402E-04    1.80     101.4  T
     SCC iter.                  ...        0 min,  0.001 sec
     gradient                   ...        0 min,  0.000 sec
 * total energy  :    -6.2720214 Eh     change       -0.3025322E-05 Eh
   gradient norm :     0.0004199 Eh/α   predicted    -0.1152485E-05 ( -61.91%)
   displ. norm   :     0.1709965 α      lambda       -0.1104462E-04
   maximum displ.:     0.1139224 α      in ANC's #2, #5, #1, ...

   *** GEOMETRY OPTIMIZATION CONVERGED AFTER 56 ITERATIONS ***

------------------------------------------------------------------------
 total energy gain   :        -0.4183584 Eh     -262.5238 kcal/mol
 total RMSD          :         2.1174857 a0        1.1205 Å
 total power (kW/mol):       -19.6142811 (step)-6847.2412 (real)
------------------------------------------------------------------------

 ANCopt (total)                0 d,  0 h,  0 min,  0.160 sec
 optimizer setup                ...        0 min,  0.000 sec (  0.026%)
 model hessian                  ...        0 min,  0.000 sec (  0.065%)
 ANC generation                 ...        0 min,  0.000 sec (  0.055%)
 coordinate transformation      ...        0 min,  0.000 sec (  0.077%)
 single point calculation       ...        0 min,  0.154 sec ( 96.279%)
 optimization log               ...        0 min,  0.001 sec (  0.875%)
 hessian update                 ...        0 min,  0.003 sec (  1.580%)
 rational function              ...        0 min,  0.001 sec (  0.408%)

================
 final structure:
================
6
 xtb: 6.5.1 (conda-forge)
Be          -0.64106624140339        0.10608326425127        0.26128620644681
C            2.07126648369647       -0.17917171876521        1.23447420484661
C            0.94147900870974       -0.07129640577869        0.82008004088646
H            3.06097255390564       -0.27826946125061        1.59292555328950
H            0.45739110459771        0.48572246152055        3.51901051628316
H            0.26995709049279        0.64187686002575        4.25972347825244

 Bond Distances (Angstroems)
 ---------------------------
Be1-C3=1.6877        C2-C3=1.2082         C2-H4=1.0573         C3-Be1=1.6877        C3-C2=1.2082         H4-C2=1.0573         
H5-H6=0.7799         H6-H5=0.7799         
 H  H  Rav=0.7799 sigma=0.0000  Rmin=0.7799  Rmax=0.7799     1
 C  H  Rav=1.0573 sigma=0.0000  Rmin=1.0573  Rmax=1.0573     1
 C  Be Rav=1.6877 sigma=0.0000  Rmin=1.6877  Rmax=1.6877     1
 C  C  Rav=1.2082 sigma=0.0000  Rmin=1.2082  Rmax=1.2082     1

 selected bond angles (degree)
 --------------------
H4-C2-C3=179.65                C2-C3-Be1=178.86               

 selected dihedral angles (degree)
 ---------------------------------
Be1-C3-C2-H4=185.06           

 CMA Distance (Angstroems)
 ---------------------------
R(CMA):  3.1742
           -------------------------------------------------
          |                Final Singlepoint                |
           -------------------------------------------------

          ...................................................
          :                      SETUP                      :
          :.................................................:
          :  # basis functions                  15          :
          :  # atomic orbitals                  15          :
          :  # shells                            9          :
          :  # electrons                        13          :
          :  max. iterations                   250          :
          :  Hamiltonian                  GFN2-xTB          :
          :  restarted?                      false          :
          :  GBSA solvation                  false          :
          :  PC potential                    false          :
          :  electronic temp.          300.0000000     K    :
          :  accuracy                    1.0000000          :
          :  -> integral cutoff          0.2500000E+02      :
          :  -> integral neglect         0.1000000E-07      :
          :  -> SCF convergence          0.1000000E-05 Eh   :
          :  -> wf. convergence          0.1000000E-03 e    :
          :  Broyden damping             0.4000000          :
          ...................................................

 iter      E             dE          RMSdq      gap      omega  full diag
   1     -6.4428858 -0.644289E+01  0.138E-04    1.80       0.0  T
   2     -6.4428858 -0.491251E-11  0.819E-05    1.80     498.4  T
   3     -6.4428858 -0.355893E-11  0.669E-05    1.80     610.5  T

   *** convergence criteria satisfied after 3 iterations ***

         #    Occupation            Energy/Eh            Energy/eV
      -------------------------------------------------------------
         1        2.0000           -0.5584589             -15.1964
         2        2.0000           -0.4778037             -13.0017
         3        2.0000           -0.4575409             -12.4503
         4        2.0000           -0.3838407             -10.4448
         5        2.0000           -0.3723676             -10.1326
         6        2.0000           -0.3717692             -10.1164
         7        1.0000           -0.2447975              -6.6613 (HOMO)
         8                         -0.1785847              -4.8595 (LUMO)
         9                         -0.1784660              -4.8563
        10                         -0.0579572              -1.5771
        11                         -0.0579256              -1.5762
        12                          0.1231101               3.3500
       ...                                ...                  ...
        15                          1.2871104              35.0241
      -------------------------------------------------------------
                  HL-Gap            0.0662128 Eh            1.8017 eV
             Fermi-level           -0.2601865 Eh           -7.0800 eV

 SCC (total)                   0 d,  0 h,  0 min,  0.001 sec
 SCC setup                      ...        0 min,  0.000 sec (  3.166%)
 Dispersion                     ...        0 min,  0.000 sec (  4.018%)
 classical contributions        ...        0 min,  0.000 sec (  2.131%)
 integral evaluation            ...        0 min,  0.000 sec (  6.128%)
 iterations                     ...        0 min,  0.000 sec ( 41.863%)
 molecular gradient             ...        0 min,  0.000 sec ( 39.773%)
 printout                       ...        0 min,  0.000 sec (  1.725%)

         :::::::::::::::::::::::::::::::::::::::::::::::::::::
         ::                     SUMMARY                     ::
         :::::::::::::::::::::::::::::::::::::::::::::::::::::
         :: total energy              -6.272021358105 Eh    ::
         :: gradient norm              0.000420708645 Eh/a0 ::
         :: HOMO-LUMO gap              1.801742684026 eV    ::
         ::.................................................::
         :: SCC energy                -6.442885827252 Eh    ::
         :: -> isotropic ES           -0.018044490219 Eh    ::
         :: -> anisotropic ES          0.008888964585 Eh    ::
         :: -> anisotropic XC          0.013117537303 Eh    ::
         :: -> dispersion             -0.002088306618 Eh    ::
         :: repulsion energy           0.170863054402 Eh    ::
         :: add. restraining           0.000000000000 Eh    ::
         :: total charge               0.000000000000 e     ::
         :::::::::::::::::::::::::::::::::::::::::::::::::::::

           -------------------------------------------------
          |                Property Printout                |
           -------------------------------------------------

    * Orbital Energies and Occupations

         #    Occupation            Energy/Eh            Energy/eV
      -------------------------------------------------------------
         1        2.0000           -0.5584589             -15.1964
         2        2.0000           -0.4778037             -13.0017
         3        2.0000           -0.4575409             -12.4503
         4        2.0000           -0.3838407             -10.4448
         5        2.0000           -0.3723676             -10.1326
         6        2.0000           -0.3717692             -10.1164
         7        1.0000           -0.2447975              -6.6613 (HOMO)
         8                         -0.1785847              -4.8595 (LUMO)
         9                         -0.1784660              -4.8563
        10                         -0.0579572              -1.5771
        11                         -0.0579256              -1.5762
        12                          0.1231101               3.3500
        13                          0.1611941               4.3863
        14                          0.3469697               9.4415
        15                          1.2871104              35.0241
      -------------------------------------------------------------
                  HL-Gap            0.0662128 Eh            1.8017 eV
             Fermi-level           -0.2601865 Eh           -7.0800 eV

     #   Z          covCN         q      C6AA      α(0)
     1   4 Be       0.841     0.339    69.618    25.007
     2   6 C        1.909    -0.092    33.651     9.368
     3   6 C        1.821    -0.254    38.812    10.066
     4   1 H        0.927     0.013     2.848     2.639
     5   1 H        0.804     0.008     2.983     2.713
     6   1 H        0.804    -0.013     3.358     2.879

 Mol. C6AA /au·bohr⁶  :        602.210764
 Mol. C8AA /au·bohr⁸  :      17487.854046
 Mol. α(0) /au        :         52.671236


Wiberg/Mayer (AO) data.
largest (>0.10) Wiberg bond orders for each atom

 ---------------------------------------------------------------------------
     #   Z sym  total        # sym  WBO       # sym  WBO       # sym  WBO
 ---------------------------------------------------------------------------
     1   4 Be   0.960 --     3 C    0.841
     2   6 C    3.965 --     3 C    2.897     4 H    0.965
     3   6 C    3.756 --     2 C    2.897     1 Be   0.841
     4   1 H    0.997 --     2 C    0.965
     5   1 H    1.000 --     6 H    0.993
     6   1 H    1.000 --     5 H    0.993
 ---------------------------------------------------------------------------

Topologies differ in total number of bonds
Note: The following floating-point exceptions are signalling: IEEE_UNDERFLOW_FLAG
normal termination of xtb
Writing topology from bond orders to xtbtopo.mol

molecular dipole:
                 x           y           z       tot (Debye)
 q only:       -1.151       0.118      -0.460
   full:       -0.476       0.045      -0.220       1.338
molecular quadrupole (traceless):
                xx          xy          yy          xz          yz          zz
 q only:       -0.571       0.091       1.358      -2.307       0.084      -0.787
  q+dip:        2.668      -0.511      -1.511       0.549       0.028      -1.157
   full:       -0.736       0.149       0.843      -1.352       0.109      -0.108

           -------------------------------------------------
          |                Geometry Summary                 |
           -------------------------------------------------

      molecular mass/u    :       36.0574771
   center of mass at/Å    :        0.9492148      -0.0331746       1.0116500
  moments of inertia/u·Å² :        0.1902279E+02   0.4875769E+02   0.6777909E+02
rotational constants/cm⁻¹ :        0.8861807E+00   0.3457431E+00   0.2487143E+00

 * 3 selected distances

     #   Z          #   Z                                           value/Å
     1   4 Be       3   6 C                                       1.6876505 (max)
     2   6 C        3   6 C                                       1.2082134
     5   1 H        6   1 H                                       0.7798535 (min)

 * 3 distinct bonds (by element types)

   Z      Z             #   av. dist./Å        max./Å        min./Å
   1 H    1 H           1     0.7798535     0.7798535     0.7798535
   4 Be   6 C           1     1.6876505     1.6876505     1.6876505
   6 C    6 C           1     1.2082134     1.2082134     1.2082134


optimized geometry written to: xtbopt.xyz


           -------------------------------------------------
          | TOTAL ENERGY               -6.272021358105 Eh   |
          | GRADIENT NORM               0.000420708645 Eh/α |
          | HOMO-LUMO GAP               1.801742684026 eV   |
           -------------------------------------------------
########################################################################
[WARNING] Runtime exception occurred
-3- restart_readRestart: Dimension missmatch in restart file.
-2- restart_readRestart: Multiplicity missmatch in restart file.
-1- restart_readRestart: Number of electron missmatch in restart file.
########################################################################

------------------------------------------------------------------------
 * finished run on 2025/06/07 at 03:27:53.617     
------------------------------------------------------------------------
 total:
 * wall-time:     0 d,  0 h,  0 min,  0.183 sec
 *  cpu-time:     0 d,  0 h,  0 min,  2.424 sec
 * ratio c/w:    13.239 speedup
 SCF:
 * wall-time:     0 d,  0 h,  0 min,  0.018 sec
 *  cpu-time:     0 d,  0 h,  0 min,  0.252 sec
 * ratio c/w:    14.032 speedup
 ANC optimizer:
 * wall-time:     0 d,  0 h,  0 min,  0.162 sec
 *  cpu-time:     0 d,  0 h,  0 min,  2.136 sec
 * ratio c/w:    13.173 speedup

