      -----------------------------------------------------------      
     |                   =====================                   |     
     |                           x T B                           |     
     |                   =====================                   |     
     |                         S. Grimme                         |     
     |          Mulliken Center for Theoretical Chemistry        |     
     |                    University of Bonn                     |     
      -----------------------------------------------------------      

   * xtb version 6.5.1 (conda-forge) compiled by 'runner@Mac-1657629245115.local' on 2022-07-12

   xtb is free software: you can redistribute it and/or modify it under
   the terms of the GNU Lesser General Public License as published by
   the Free Software Foundation, either version 3 of the License, or
   (at your option) any later version.
   
   xtb is distributed in the hope that it will be useful,
   but WITHOUT ANY WARRANTY; without even the implied warranty of
   MERCHANTABILITY or FITNESS FOR A PARTICULAR PURPOSE.  See the
   GNU Lesser General Public License for more details.
   
   Cite this work as:
   * C. Bannwarth, E. Caldeweyher, S. Ehlert, A. Hansen, P. Pracht,
     J. Seibert, S. Spicher, S. Grimme, WIREs Comput. Mol. Sci., 2020, 11,
     e01493. DOI: 10.1002/wcms.1493
   
   for GFN2-xTB:
   * C. Bannwarth, S. Ehlert and S. Grimme., J. Chem. Theory Comput., 2019,
     15, 1652-1671. DOI: 10.1021/acs.jctc.8b01176
   for GFN1-xTB:
   * S. Grimme, C. Bannwarth, P. Shushkov, J. Chem. Theory Comput., 2017,
     13, 1989-2009. DOI: 10.1021/acs.jctc.7b00118
   for GFN0-xTB:
   * P. Pracht, E. Caldeweyher, S. Ehlert, S. Grimme, ChemRxiv, 2019, preprint.
     DOI: 10.26434/chemrxiv.8326202.v1
   for GFN-FF:
   * S. Spicher and S. Grimme, Angew. Chem. Int. Ed., 2020, 59, 15665-15673.
     DOI: 10.1002/anie.202004239
   
   for ALPB and GBSA implicit solvation:
   * S. Ehlert, M. Stahn, S. Spicher, S. Grimme, J. Chem. Theory Comput.,
     2021, 17, 4250-4261. DOI: 10.1021/acs.jctc.1c00471
   
   for DFT-D4:
   * E. Caldeweyher, C. Bannwarth and S. Grimme, J. Chem. Phys., 2017,
     147, 034112. DOI: 10.1063/1.4993215
   * E. Caldeweyher, S. Ehlert, A. Hansen, H. Neugebauer, S. Spicher,
     C. Bannwarth and S. Grimme, J. Chem. Phys., 2019, 150, 154122.
     DOI: 10.1063/1.5090222
   * E. Caldeweyher, J.-M. Mewes, S. Ehlert and S. Grimme, Phys. Chem. Chem. Phys.
     2020, 22, 8499-8512. DOI: 10.1039/D0CP00502A
   
   for sTDA-xTB:
   * S. Grimme and C. Bannwarth, J. Chem. Phys., 2016, 145, 054103.
     DOI: 10.1063/1.4959605
   
   in the mass-spec context:
   * V. Asgeirsson, C. Bauer and S. Grimme, Chem. Sci., 2017, 8, 4879.
     DOI: 10.1039/c7sc00601b
   * J. Koopman and S. Grimme, ACS Omega 2019, 4, 12, 15120-15133.
     DOI: 10.1021/acsomega.9b02011
   
   for metadynamics refer to:
   * S. Grimme, J. Chem. Theory Comput., 2019, 155, 2847-2862
     DOI: 10.1021/acs.jctc.9b00143
   
   for SPH calculations refer to:
   * S. Spicher and S. Grimme, J. Chem. Theory Comput., 2021, 17, 1701-1714
     DOI: 10.1021/acs.jctc.0c01306
   
   with help from (in alphabetical order)
   P. Atkinson, C. Bannwarth, F. Bohle, G. Brandenburg, E. Caldeweyher
   M. Checinski, S. Dohm, S. Ehlert, S. Ehrlich, I. Gerasimov, C. Hölzer
   A. Katbashev, J. Koopman, C. Lavigne, S. Lehtola, F. März, M. Müller,
   F. Musil, H. Neugebauer, J. Pisarek, C. Plett, P. Pracht, F. Pultar,
   J. Seibert, P. Shushkov, S. Spicher, M. Stahn, M. Steiner, T. Strunk,
   J. Stückrath, T. Rose, and J. Unsleber
   
 * started run on 2025/06/07 at 03:27:53.628     

           -------------------------------------------------
          |                Calculation Setup                |
           -------------------------------------------------

          program call               : xtb BeC2H6.xyz --gfn 2 --opt
          coordinate file            : BeC2H6.xyz
          omp threads                :                    16

   ID    Z sym.   atoms
    1    4 Be     1
    2    6 C      2, 3
    3    1 H      4-9

molecular fragmentation (1/2 indicates fragments):
111222222
# atoms in fragment 1/2:     3     6
 fragment masses (1/2) :       33.03        6.05
CMA distance (Bohr)    :   4.890
constraining FC (au)   :  0.0500

           -------------------------------------------------
          |                 G F N 2 - x T B                 |
           -------------------------------------------------

        Reference                      10.1021/acs.jctc.8b01176
      * Hamiltonian:
        H0-scaling (s, p, d)           1.850000    2.230000    2.230000
        zeta-weighting                 0.500000
      * Dispersion:
        s8                             2.700000
        a1                             0.520000
        a2                             5.000000
        s9                             5.000000
      * Repulsion:
        kExp                           1.500000    1.000000
        rExp                           1.000000
      * Coulomb:
        alpha                          2.000000
        third order                    shell-resolved
        anisotropic                    true
        a3                             3.000000
        a5                             4.000000
        cn-shift                       1.200000
        cn-exp                         4.000000
        max-rad                        5.000000


          ...................................................
          :                      SETUP                      :
          :.................................................:
          :  # basis functions                  18          :
          :  # atomic orbitals                  18          :
          :  # shells                           12          :
          :  # electrons                        16          :
          :  max. iterations                   250          :
          :  Hamiltonian                  GFN2-xTB          :
          :  restarted?                      false          :
          :  GBSA solvation                  false          :
          :  PC potential                    false          :
          :  electronic temp.          300.0000000     K    :
          :  accuracy                    1.0000000          :
          :  -> integral cutoff          0.2500000E+02      :
          :  -> integral neglect         0.1000000E-07      :
          :  -> SCF convergence          0.1000000E-05 Eh   :
          :  -> wf. convergence          0.1000000E-03 e    :
          :  Broyden damping             0.4000000          :
          ...................................................

 iter      E             dE          RMSdq      gap      omega  full diag
   1     10.0619222  0.100619E+02  0.229E+01    1.38       0.0  T
   2     -3.2160832 -0.132780E+02  0.184E+01    0.28       1.0  T
   3     -5.1592267 -0.194314E+01  0.124E+01    1.93       1.0  T
   4     -4.3989839  0.760243E+00  0.128E+01    1.52       1.0  T
   5     -5.0349841 -0.636000E+00  0.109E+01    1.70       1.0  T
   6     -6.4629689 -0.142798E+01  0.109E+01    0.93       1.0  T
   7     -6.3630636  0.999053E-01  0.688E+00    0.81       1.0  T
   8     -6.2250663  0.137997E+00  0.656E+00    0.85       1.0  T
   9     13.0361982  0.192613E+02  0.229E+01    2.01       1.0  T
  10     -0.7618922 -0.137981E+02  0.126E+01    1.05       1.0  T
  11      3.5425896  0.430448E+01  0.160E+01    1.56       1.0  T
  12     -2.2859494 -0.582854E+01  0.115E+01    1.00       1.0  T
  13     -7.2691619 -0.498321E+01  0.613E+00    0.41       1.0  T
  14     -6.4893824  0.779779E+00  0.893E+00    0.96       1.0  T
  15     -6.8063346 -0.316952E+00  0.629E+00    0.26       1.0  T
  16     -6.8157719 -0.943727E-02  0.623E+00    0.27       1.0  T
  17     -6.8994720 -0.837001E-01  0.608E+00    0.29       1.0  T
  18     -6.9955259 -0.960540E-01  0.602E+00    0.78       1.0  T
  19     -6.2704499  0.725076E+00  0.721E+00    1.00       1.0  T
  20     -6.3970096 -0.126560E+00  0.693E+00    0.99       1.0  T
  21     -6.5371993 -0.140190E+00  0.648E+00    0.98       1.0  T
  22     -7.0088856 -0.471686E+00  0.448E+00    0.85       1.0  T
  23     -7.2820620 -0.273176E+00  0.281E+00    0.74       1.0  T
  24     -7.3061789 -0.241170E-01  0.258E+00    0.73       1.0  T
  25     -7.3210543 -0.148753E-01  0.255E+00    0.73       1.0  T
  26     -7.2737037  0.473506E-01  0.265E+00    0.77       1.0  T
  27     -7.1958775  0.778261E-01  0.292E+00    0.78       1.0  T
  28     -7.2044322 -0.855472E-02  0.278E+00    0.80       1.0  T
  29     -7.1936755  0.107568E-01  0.285E+00    0.84       1.0  T
  30     -7.0162746  0.177401E+00  0.352E+00    0.97       1.0  T
  31     -7.0914655 -0.751909E-01  0.353E+00    0.97       1.0  T
  32     -7.1511495 -0.596840E-01  0.428E+00    1.02       1.0  T
  33     -7.2923810 -0.141231E+00  0.457E+00    0.98       1.0  T
  34     -7.2942826 -0.190169E-02  0.445E+00    0.96       1.0  T
  35     -7.3622946 -0.680119E-01  0.492E+00    0.95       1.0  T
  36     -7.3991360 -0.368414E-01  0.538E+00    0.89       1.0  T
  37     -7.4002163 -0.108030E-02  0.505E+00    0.85       1.0  T
  38     -7.4029761 -0.275975E-02  0.516E+00    0.84       1.0  T
  39     -7.3969211  0.605493E-02  0.487E+00    0.76       1.0  T
  40     -7.4006657 -0.374455E-02  0.459E+00    0.76       1.0  T
  41     -7.3841341  0.165315E-01  0.440E+00    0.72       1.0  T
  42     -7.3868336 -0.269948E-02  0.349E+00    0.68       1.0  T
  43     -7.3919844 -0.515076E-02  0.292E+00    0.67       1.0  T
  44     -7.3890149  0.296946E-02  0.223E+00    0.65       1.0  T
  45     -7.3957834 -0.676850E-02  0.162E+00    0.64       1.0  T
  46     -7.3959777 -0.194250E-03  0.137E+00    0.65       1.0  T
  47     -7.3954189  0.558762E-03  0.119E+00    0.66       1.0  T
  48     -7.4030520 -0.763305E-02  0.990E-01    0.69       1.0  T
  49     -7.4056530 -0.260108E-02  0.857E-01    0.70       1.0  T
  50     -7.4050580  0.595048E-03  0.776E-01    0.70       1.0  T
  51     -7.4059879 -0.929955E-03  0.620E-01    0.71       1.0  T
  52     -7.4062550 -0.267054E-03  0.591E-01    0.72       1.0  T
  53     -7.4065064 -0.251361E-03  0.559E-01    0.73       1.0  T
  54     -7.4065351 -0.287685E-04  0.537E-01    0.73       1.0  T
  55     -7.4064915  0.436532E-04  0.509E-01    0.74       1.0  T
  56     -7.4064047  0.867982E-04  0.449E-01    0.75       1.0  T
  57     -7.4064921 -0.873919E-04  0.291E-01    0.75       1.0  T
  58     -7.4065689 -0.768270E-04  0.153E-01    0.74       1.0  T
  59     -7.4065072  0.617188E-04  0.123E-01    0.73       1.0  T
  60     -7.4065193 -0.121108E-04  0.109E-01    0.73       1.0  T
  61     -7.4065716 -0.523514E-04  0.942E-02    0.74       1.0  T
  62     -7.4065845 -0.128724E-04  0.702E-02    0.74       1.0  T
  63     -7.4065849 -0.432710E-06  0.410E-02    0.74       1.0  T
  64     -7.4065850 -0.452305E-07  0.243E-02    0.74       1.4  T
  65     -7.4065852 -0.181219E-06  0.115E-02    0.74       2.9  T
  66     -7.4065853 -0.106573E-06  0.330E-03    0.74      10.1  T
  67     -7.4065853 -0.657937E-07  0.155E-03    0.74      21.4  T
  68     -7.4065853 -0.862708E-09  0.354E-04    0.74      94.1  T
  69     -7.4065853  0.145485E-08  0.332E-04    0.74     100.3  T

   *** convergence criteria satisfied after 69 iterations ***

         #    Occupation            Energy/Eh            Energy/eV
      -------------------------------------------------------------
         1        2.0000           -0.5968140             -16.2401
         2        2.0000           -0.5529470             -15.0465
         3        2.0000           -0.4869673             -13.2511
         4        2.0000           -0.4661430             -12.6844
         5        2.0000           -0.3864845             -10.5168
         6        2.0000           -0.3265744              -8.8865
         7        2.0000           -0.3109631              -8.4617
         8        2.0000           -0.2897575              -7.8847 (HOMO)
         9        0.0000           -0.2625557              -7.1445 (LUMO)
        10                         -0.2471244              -6.7246
        11                         -0.2361326              -6.4255
        12                         -0.1592355              -4.3330
        13                         -0.1175562              -3.1989
       ...                                ...                  ...
        18                          0.7766044              21.1325
      -------------------------------------------------------------
                  HL-Gap            0.0272018 Eh            0.7402 eV
             Fermi-level           -0.2761566 Eh           -7.5146 eV

 SCC (total)                   0 d,  0 h,  0 min,  0.016 sec
 SCC setup                      ...        0 min,  0.000 sec (  0.348%)
 Dispersion                     ...        0 min,  0.000 sec (  0.561%)
 classical contributions        ...        0 min,  0.000 sec (  0.607%)
 integral evaluation            ...        0 min,  0.000 sec (  1.077%)
 iterations                     ...        0 min,  0.015 sec ( 93.472%)
 molecular gradient             ...        0 min,  0.001 sec (  3.604%)
 printout                       ...        0 min,  0.000 sec (  0.255%)

         :::::::::::::::::::::::::::::::::::::::::::::::::::::
         ::                     SUMMARY                     ::
         :::::::::::::::::::::::::::::::::::::::::::::::::::::
         :: total energy              -7.319898548824 Eh    ::
         :: gradient norm              0.245084473816 Eh/a0 ::
         :: HOMO-LUMO gap              0.740198210188 eV    ::
         ::.................................................::
         :: SCC energy                -7.406585339625 Eh    ::
         :: -> isotropic ES           -0.051167938771 Eh    ::
         :: -> anisotropic ES          0.004658630014 Eh    ::
         :: -> anisotropic XC         -0.002692717521 Eh    ::
         :: -> dispersion             -0.004689346877 Eh    ::
         :: repulsion energy           0.086685163763 Eh    ::
         :: add. restraining           0.000000000000 Eh    ::
         :: total charge              -0.000000000000 e     ::
         :::::::::::::::::::::::::::::::::::::::::::::::::::::

      ----------------------------------------------------------- 
     |                   =====================                   |
     |                        A N C O P T                        |
     |                   =====================                   |
     |               Approximate Normal Coordinate               |
     |                Rational Function Optimizer                |
      ----------------------------------------------------------- 

          ...................................................
          :                      SETUP                      :
          :.................................................:
          :   optimization level            normal          :
          :   max. optcycles                   200          :
          :   ANC micro-cycles                  20          :
          :   degrees of freedom                21          :
          :.................................................:
          :   RF solver                   davidson          :
          :   write xtbopt.log                true          :
          :   linear?                        false          :
          :   energy convergence         0.5000000E-05 Eh   :
          :   grad. convergence          0.1000000E-02 Eh/α :
          :   maximium RF displ.         1.0000000          :
          :   Hlow (freq-cutoff)         0.1000000E-01      :
          :   Hmax (freq-cutoff)         5.0000000          :
          :   S6 in model hess.         20.0000000          :
          ...................................................

generating ANC from model Hessian ...
Using Lindh-Hessian (1995)
 Shifting diagonal of input Hessian by    1.3806407418071848E-002
 Lowest  eigenvalues of input Hessian
    0.010000    0.013603    0.000000    0.000000    0.000000    0.000000
    0.000000    0.000000    0.014198    0.014705    0.015485    0.016773
    0.017613    0.024231    0.034558    0.045105    0.051183    0.064326
 Highest eigenvalues
    0.204650    0.269984    0.284748    0.343083    0.397083    0.432731


........................................................................
.............................. CYCLE    1 ..............................
........................................................................
   1     -7.4065853 -0.740659E+01  0.215E-04    0.74       0.0  T
   2     -7.4065853  0.950646E-08  0.736E-04    0.74      45.3  T
   3     -7.4065853 -0.399024E-08  0.588E-04    0.74      56.7  T
     SCC iter.                  ...        0 min,  0.000 sec
     gradient                   ...        0 min,  0.000 sec
 * total energy  :    -7.3198985 Eh     change        0.4002560E-08 Eh
   gradient norm :     0.2450751 Eh/α   predicted     0.0000000E+00 (-100.00%)
   displ. norm   :     0.6961721 α      lambda       -0.1637514E+00
   maximum displ.:     0.4211027 α      in ANC's #14, #18, #13, ...

........................................................................
.............................. CYCLE    2 ..............................
........................................................................
   1     -7.4330463 -0.743305E+01  0.331E+00    1.37       0.0  T
   2     -2.5210957  0.491195E+01  0.124E+01    1.59       1.0  T
   3     -7.3811807 -0.486009E+01  0.313E+00    1.17       1.0  T
   4     -7.1354417  0.245739E+00  0.432E+00    1.20       1.0  T
   5     -7.1370298 -0.158817E-02  0.444E+00    1.19       1.0  T
   6     -7.1354904  0.153940E-02  0.445E+00    1.19       1.0  T
   7     -7.4890965 -0.353606E+00  0.257E+00    1.14       1.0  T
   8     -7.5178496 -0.287532E-01  0.234E+00    1.19       1.0  T
   9     -7.5190525 -0.120285E-02  0.163E+00    1.17       1.0  T
  10     -7.5195030 -0.450525E-03  0.124E+00    1.10       1.0  T
  11     -7.5184992  0.100386E-02  0.398E-01    1.12       1.0  T
  12     -7.5197736 -0.127443E-02  0.111E-01    1.14       1.0  T
  13     -7.5200851 -0.311552E-03  0.100E-01    1.14       1.0  T
  14     -7.5201304 -0.452905E-04  0.416E-02    1.14       1.0  T
  15     -7.5201460 -0.155698E-04  0.320E-02    1.14       1.0  T
  16     -7.5201475 -0.147191E-05  0.224E-02    1.14       1.5  T
  17     -7.5201487 -0.124004E-05  0.200E-02    1.14       1.7  T
  18     -7.5201491 -0.398614E-06  0.637E-03    1.14       5.2  T
  19     -7.5201493 -0.224137E-06  0.248E-03    1.14      13.4  T
  20     -7.5201494 -0.911981E-07  0.391E-04    1.14      85.2  T
  21     -7.5201494 -0.118502E-08  0.243E-04    1.14     137.0  T
     SCC iter.                  ...        0 min,  0.003 sec
     gradient                   ...        0 min,  0.001 sec
 * total energy  :    -7.4548190 Eh     change       -0.1349204E+00 Eh
   gradient norm :     0.2047522 Eh/α   predicted    -0.1215572E+00 (  -9.90%)
   displ. norm   :     0.8652274 α      lambda       -0.1743167E+00
   maximum displ.:     0.6233199 α      in ANC's #18, #17, #13, ...

........................................................................
.............................. CYCLE    3 ..............................
........................................................................
   1     -7.5879594 -0.758796E+01  0.416E+00    1.44       0.0  T
   2     -2.0746581  0.551330E+01  0.127E+01    1.05       1.0  T
   3     -7.4557415 -0.538108E+01  0.355E+00    1.85       1.0  T
   4     -7.6977772 -0.242036E+00  0.221E+00    0.97       1.0  T
   5     -7.7083623 -0.105851E-01  0.334E+00    0.68       1.0  T
   6     -7.7349198 -0.265575E-01  0.213E+00    0.86       1.0  T
   7     -7.7368443 -0.192451E-02  0.369E+00    0.81       1.0  T
   8     -7.6798816  0.569627E-01  0.228E+00    0.99       1.0  T
   9     -7.6899164 -0.100348E-01  0.213E+00    0.96       1.0  T
  10     -7.7440629 -0.541465E-01  0.428E-01    0.76       1.0  T
  11     -7.7456657 -0.160280E-02  0.731E-01    0.75       1.0  T
  12     -7.7431996  0.246618E-02  0.110E+00    0.72       1.0  T
  13     -7.7431055  0.940180E-04  0.780E-01    0.75       1.0  T
  14     -7.7443241 -0.121859E-02  0.557E-01    0.74       1.0  T
  15     -7.7460513 -0.172719E-02  0.594E-02    0.73       1.0  T
  16     -7.7460903 -0.389265E-04  0.362E-02    0.73       1.0  T
  17     -7.7461118 -0.215417E-04  0.160E-02    0.73       2.1  T
  18     -7.7461123 -0.546258E-06  0.512E-03    0.73       6.5  T
  19     -7.7461124 -0.597961E-07  0.286E-03    0.73      11.7  T
  20     -7.7461124 -0.287557E-07  0.204E-03    0.73      16.4  T
  21     -7.7461124 -0.951716E-08  0.327E-05    0.73    1019.0  T
  22     -7.7461124 -0.710543E-11  0.943E-05    0.73     353.4  T
     SCC iter.                  ...        0 min,  0.005 sec
     gradient                   ...        0 min,  0.001 sec
 * total energy  :    -7.5269169 Eh     change       -0.7209791E-01 Eh
   gradient norm :     0.3040448 Eh/α   predicted    -0.1524068E+00 ( 111.39%)
   displ. norm   :     0.4039467 α      lambda       -0.1125855E+00
   maximum displ.:     0.2422885 α      in ANC's #18, #15, #9, ...

........................................................................
.............................. CYCLE    4 ..............................
........................................................................
   1     -7.6120063 -0.761201E+01  0.200E+00    0.98       0.0  T
   2     -7.2174393  0.394567E+00  0.450E+00    2.22       1.0  T
   3     -7.6486210 -0.431182E+00  0.931E-01    0.99       1.0  T
   4     -7.6406610  0.795997E-02  0.136E+00    1.19       1.0  T
   5     -7.6460390 -0.537802E-02  0.116E+00    1.17       1.0  T
   6     -7.6545106 -0.847155E-02  0.488E-01    1.08       1.0  T
   7     -7.6559936 -0.148298E-02  0.208E-01    1.13       1.0  T
   8     -7.6550728  0.920825E-03  0.304E-01    1.08       1.0  T
   9     -7.6562695 -0.119672E-02  0.140E-01    1.09       1.0  T
  10     -7.6565618 -0.292351E-03  0.403E-02    1.10       1.0  T
  11     -7.6565848 -0.230198E-04  0.453E-03    1.10       7.4  T
  12     -7.6565852 -0.314943E-06  0.787E-04    1.10      42.3  T
  13     -7.6565852 -0.995781E-09  0.353E-04    1.10      94.3  T
     SCC iter.                  ...        0 min,  0.002 sec
     gradient                   ...        0 min,  0.000 sec
 * total energy  :    -7.5545530 Eh     change       -0.2763615E-01 Eh
   gradient norm :     0.1266117 Eh/α   predicted    -0.6547818E-01 ( 136.93%)
   displ. norm   :     0.5217871 α      lambda       -0.3622923E-01
   maximum displ.:     0.3164003 α      in ANC's #9, #13, #7, ...

........................................................................
.............................. CYCLE    5 ..............................
........................................................................
   1     -7.6709539 -0.767095E+01  0.181E+00    0.93       0.0  T
   2     -5.7034013  0.196755E+01  0.105E+01    1.11       1.0  T
   3     -7.6651790 -0.196178E+01  0.204E+00    0.68       1.0  T
   4     -7.1873853  0.477794E+00  0.628E+00    0.60       1.0  T
   5     -7.2548865 -0.675012E-01  0.595E+00    0.60       1.0  T
   6     -7.3753410 -0.120455E+00  0.529E+00    0.60       1.0  T
   7     -7.6890671 -0.313726E+00  0.340E+00    0.66       1.0  T
   8     -7.6304152  0.586519E-01  0.423E+00    1.09       1.0  T
   9     -7.6777508 -0.473356E-01  0.279E+00    0.87       1.0  T
  10     -7.6931383 -0.153875E-01  0.140E+00    0.82       1.0  T
  11     -7.6949954 -0.185710E-02  0.110E+00    0.82       1.0  T
  12     -7.6995830 -0.458762E-02  0.124E-01    0.78       1.0  T
  13     -7.6994761  0.106953E-03  0.226E-01    0.78       1.0  T
  14     -7.6995869 -0.110825E-03  0.400E-02    0.78       1.0  T
  15     -7.6995926 -0.569146E-05  0.245E-02    0.78       1.4  T
  16     -7.6995837  0.888215E-05  0.330E-02    0.78       1.0  T
  17     -7.6995892 -0.546955E-05  0.224E-02    0.78       1.5  T
  18     -7.6995909 -0.171273E-05  0.178E-02    0.78       1.9  T
  19     -7.6995916 -0.727723E-06  0.152E-02    0.78       2.2  T
  20     -7.6995925 -0.916375E-06  0.117E-02    0.78       2.8  T
  21     -7.6995937 -0.111337E-05  0.440E-03    0.78       7.6  T
  22     -7.6995938 -0.139963E-06  0.499E-04    0.78      66.9  T
  23     -7.6995938 -0.167375E-09  0.228E-04    0.78     146.3  T
     SCC iter.                  ...        0 min,  0.003 sec
     gradient                   ...        0 min,  0.001 sec
 * total energy  :    -7.5834790 Eh     change       -0.2892593E-01 Eh
   gradient norm :     0.0938926 Eh/α   predicted    -0.2304654E-01 ( -20.33%)
   displ. norm   :     0.6847377 α      lambda       -0.4769051E-01
   maximum displ.:     0.3781749 α      in ANC's #9, #18, #13, ...

........................................................................
.............................. CYCLE    6 ..............................
........................................................................
   1     -7.7548617 -0.775486E+01  0.268E+00    0.92       0.0  T
   2     -4.9326833  0.282218E+01  0.116E+01    1.26       1.0  T
   3     -7.6054325 -0.267275E+01  0.281E+00    1.62       1.0  T
   4     -7.7900088 -0.184576E+00  0.125E+00    0.58       1.0  T
   5     -7.7939692 -0.396041E-02  0.103E+00    0.49       1.0  T
   6     -7.7915250  0.244423E-02  0.928E-01    0.56       1.0  T
   7     -7.7851127  0.641228E-02  0.879E-01    0.64       1.0  T
   8     -7.7853393 -0.226605E-03  0.826E-01    0.64       1.0  T
   9     -7.7912254 -0.588611E-02  0.550E-01    0.59       1.0  T
  10     -7.7918731 -0.647655E-03  0.423E-01    0.60       1.0  T
  11     -7.7939828 -0.210971E-02  0.122E-01    0.57       1.0  T
  12     -7.7939575  0.252357E-04  0.997E-02    0.57       1.0  T
  13     -7.7940473 -0.898153E-04  0.471E-02    0.57       1.0  T
  14     -7.7940693 -0.219384E-04  0.269E-02    0.57       1.2  T
  15     -7.7940744 -0.512861E-05  0.594E-03    0.57       5.6  T
  16     -7.7940746 -0.208967E-06  0.260E-03    0.57      12.8  T
  17     -7.7940747 -0.469456E-07  0.118E-03    0.57      28.2  T
  18     -7.7940747 -0.563270E-09  0.120E-04    0.57     278.0  T
  19     -7.7940747  0.431006E-10  0.132E-04    0.57     253.0  T
     SCC iter.                  ...        0 min,  0.002 sec
     gradient                   ...        0 min,  0.000 sec
 * total energy  :    -7.6186792 Eh     change       -0.3520025E-01 Eh
   gradient norm :     0.1154889 Eh/α   predicted    -0.3502547E-01 (  -0.50%)
   displ. norm   :     0.7387495 α      lambda       -0.3884866E-01
   maximum displ.:     0.2754728 α      in ANC's #9, #15, #21, ...

........................................................................
.............................. CYCLE    7 ..............................
........................................................................
   1     -7.7904699 -0.779047E+01  0.294E+00    0.92       0.0  T
   2     -7.7703656  0.201043E-01  0.218E+00    1.08       1.0  T
   3     -7.6467637  0.123602E+00  0.307E+00    0.50       1.0  T
   4     -7.6777330 -0.309693E-01  0.271E+00    1.87       1.0  T
   5     -7.7936837 -0.115951E+00  0.730E-01    0.89       1.0  T
   6     -7.7923694  0.131426E-02  0.716E-01    1.14       1.0  T
   7     -7.7984450 -0.607553E-02  0.379E-01    1.04       1.0  T
   8     -7.7991522 -0.707222E-03  0.181E-01    1.01       1.0  T
   9     -7.7991972 -0.450533E-04  0.449E-02    1.01       1.0  T
  10     -7.7992022 -0.494642E-05  0.114E-02    1.01       2.9  T
  11     -7.7992034 -0.124012E-05  0.143E-03    1.01      23.2  T
  12     -7.7992034  0.355612E-08  0.797E-04    1.01      41.8  T
  13     -7.7992034 -0.528050E-08  0.143E-04    1.01     233.3  T
     SCC iter.                  ...        0 min,  0.002 sec
     gradient                   ...        0 min,  0.000 sec
 * total energy  :    -7.6362479 Eh     change       -0.1756870E-01 Eh
   gradient norm :     0.1199274 Eh/α   predicted    -0.3002513E-01 (  70.90%)
   displ. norm   :     0.5229336 α      lambda       -0.2629543E-01
   maximum displ.:     0.2341726 α      in ANC's #4, #15, #12, ...

........................................................................
.............................. CYCLE    8 ..............................
........................................................................
   1     -7.8075056 -0.780751E+01  0.163E+00    0.68       0.0  T
   2     -7.1801928  0.627313E+00  0.849E+00    0.20       1.0  T
   3     -7.8114519 -0.631259E+00  0.108E+00    0.47       1.0  T
   4     -7.7603359  0.511159E-01  0.252E+00    0.30       1.0  T
   5     -7.7114465  0.488895E-01  0.346E+00    0.26       1.0  T
   6     -7.7691950 -0.577485E-01  0.170E+00    1.04       1.0  T
   7     -7.8112662 -0.420713E-01  0.591E-01    0.54       1.0  T
   8     -7.8092157  0.205053E-02  0.625E-01    0.51       1.0  T
   9     -7.8109286 -0.171285E-02  0.468E-01    0.53       1.0  T
  10     -7.8112298 -0.301245E-03  0.365E-01    0.53       1.0  T
  11     -7.8116469 -0.417092E-03  0.247E-01    0.54       1.0  T
  12     -7.8118097 -0.162787E-03  0.180E-01    0.54       1.0  T
  13     -7.8119301 -0.120431E-03  0.110E-01    0.54       1.0  T
  14     -7.8119493 -0.191694E-04  0.940E-02    0.54       1.0  T
  15     -7.8119809 -0.316121E-04  0.596E-02    0.55       1.0  T
  16     -7.8119887 -0.785517E-05  0.468E-02    0.55       1.0  T
  17     -7.8120002 -0.114104E-04  0.164E-02    0.55       2.0  T
  18     -7.8120016 -0.141292E-05  0.580E-03    0.55       5.8  T
  19     -7.8120018 -0.199481E-06  0.104E-03    0.55      32.1  T
  20     -7.8120018 -0.532808E-08  0.475E-04    0.55      70.2  T
  21     -7.8120018 -0.123414E-08  0.142E-04    0.55     235.0  T
     SCC iter.                  ...        0 min,  0.002 sec
     gradient                   ...        0 min,  0.000 sec
 * total energy  :    -7.6514447 Eh     change       -0.1519684E-01 Eh
   gradient norm :     0.0304367 Eh/α   predicted    -0.1674308E-01 (  10.17%)
   displ. norm   :     0.5486475 α      lambda       -0.1074883E-01
   maximum displ.:     0.2054402 α      in ANC's #9, #3, #12, ...

........................................................................
.............................. CYCLE    9 ..............................
........................................................................
   1     -7.8290935 -0.782909E+01  0.250E+00    0.52       0.0  T
   2     -7.8252511  0.384235E-02  0.147E+00    0.65       1.0  T
   3     -5.3114369  0.251381E+01  0.129E+01    0.60       1.0  T
   4     -5.7329507 -0.421514E+00  0.125E+01    0.43       1.0  T
   5     -7.5865206 -0.185357E+01  0.472E+00    0.18       1.0  T
   6     -7.8190164 -0.232496E+00  0.871E-01    0.68       1.0  T
   7     -7.8231230 -0.410657E-02  0.640E-01    0.42       1.0  T
   8     -7.8299935 -0.687048E-02  0.207E-01    0.57       1.0  T
   9     -7.8299757  0.177716E-04  0.176E-01    0.57       1.0  T
  10     -7.8299006  0.751095E-04  0.186E-01    0.57       1.0  T
  11     -7.8298771  0.235125E-04  0.205E-01    0.57       1.0  T
  12     -7.8298403  0.367763E-04  0.218E-01    0.57       1.0  T
  13     -7.8298006  0.396892E-04  0.234E-01    0.57       1.0  T
  14     -7.8296986  0.102037E-03  0.272E-01    0.56       1.0  T
  15     -7.8297936 -0.950675E-04  0.236E-01    0.57       1.0  T
  16     -7.8299243 -0.130671E-03  0.175E-01    0.57       1.0  T
  17     -7.8299731 -0.488156E-04  0.145E-01    0.58       1.0  T
  18     -7.8299926 -0.194952E-04  0.129E-01    0.58       1.0  T
  19     -7.8300048 -0.121831E-04  0.109E-01    0.58       1.0  T
  20     -7.8300098 -0.504160E-05  0.872E-02    0.58       1.0  T
  21     -7.8300130 -0.315224E-05  0.622E-02    0.58       1.0  T
  22     -7.8300174 -0.443391E-05  0.295E-02    0.58       1.1  T
  23     -7.8300197 -0.226718E-05  0.862E-03    0.59       3.9  T
  24     -7.8300200 -0.302969E-06  0.535E-03    0.59       6.2  T
  25     -7.8300200 -0.490031E-08  0.142E-03    0.59      23.5  T
  26     -7.8300200 -0.535991E-08  0.108E-04    0.59     310.1  T
  27     -7.8300200  0.555911E-11  0.106E-04    0.59     313.9  T
     SCC iter.                  ...        0 min,  0.005 sec
     gradient                   ...        0 min,  0.001 sec
 * total energy  :    -7.6589568 Eh     change       -0.7512049E-02 Eh
   gradient norm :     0.0620670 Eh/α   predicted    -0.6992199E-02 (  -6.92%)
   displ. norm   :     0.7733383 α      lambda       -0.1664932E-01
   maximum displ.:     0.3242632 α      in ANC's #12, #9, #11, ...

........................................................................
.............................. CYCLE   10 ..............................
........................................................................
   1     -7.8140362 -0.781404E+01  0.316E+00    0.87       0.0  T
   2     -7.5893800  0.224656E+00  0.309E+00    2.45       1.0  T
   3     -4.0109175  0.357846E+01  0.123E+01    1.06       1.0  T
   4     -3.3618784  0.649039E+00  0.127E+01    1.17       1.0  T
   5     -7.6394686 -0.427759E+01  0.423E+00    0.71       1.0  T
   6     -7.7951049 -0.155636E+00  0.218E+00    0.85       1.0  T
   7     -7.8221682 -0.270633E-01  0.129E+00    1.25       1.0  T
   8     -7.8253442 -0.317592E-02  0.124E+00    1.23       1.0  T
   9     -7.8314767 -0.613254E-02  0.153E+00    1.14       1.0  T
  10     -7.8311811  0.295598E-03  0.185E+00    1.10       1.0  T
  11     -7.8269679  0.421325E-02  0.256E+00    1.08       1.0  T
  12     -7.8297725 -0.280467E-02  0.214E+00    1.09       1.0  T
  13     -7.8327578 -0.298529E-02  0.105E+00    1.10       1.0  T
  14     -7.8311608  0.159706E-02  0.318E-01    1.12       1.0  T
  15     -7.8300715  0.108927E-02  0.436E-01    1.12       1.0  T
  16     -7.8314366 -0.136508E-02  0.272E-01    1.12       1.0  T
  17     -7.8319743 -0.537700E-03  0.244E-01    1.11       1.0  T
  18     -7.8321091 -0.134852E-03  0.237E-01    1.11       1.0  T
  19     -7.8326484 -0.539334E-03  0.180E-01    1.10       1.0  T
  20     -7.8332193 -0.570804E-03  0.735E-02    1.09       1.0  T
  21     -7.8333164 -0.971195E-04  0.215E-02    1.09       1.5  T
  22     -7.8333189 -0.254271E-05  0.750E-03    1.09       4.4  T
  23     -7.8333180  0.956586E-06  0.629E-03    1.09       5.3  T
  24     -7.8333188 -0.817849E-06  0.282E-03    1.09      11.8  T
  25     -7.8333190 -0.181819E-06  0.621E-04    1.09      53.6  T
  26     -7.8333190 -0.564491E-10  0.151E-04    1.09     220.3  T
     SCC iter.                  ...        0 min,  0.004 sec
     gradient                   ...        0 min,  0.001 sec
 * total energy  :    -7.6682819 Eh     change       -0.9325082E-02 Eh
   gradient norm :     0.0879775 Eh/α   predicted    -0.1330321E-01 (  42.66%)
   displ. norm   :     0.4322730 α      lambda       -0.1635212E-01
   maximum displ.:     0.1861790 α      in ANC's #7, #9, #1, ...

........................................................................
.............................. CYCLE   11 ..............................
........................................................................
   1     -7.8613572 -0.786136E+01  0.108E+00    1.38       0.0  T
   2     -7.3304101  0.530947E+00  0.496E+00    0.73       1.0  T
   3     -7.8591535 -0.528743E+00  0.915E-01    1.10       1.0  T
   4     -7.8665806 -0.742716E-02  0.478E-01    1.20       1.0  T
   5     -7.8592511  0.732952E-02  0.546E-01    1.40       1.0  T
   6     -7.8681767 -0.892560E-02  0.740E-02    1.23       1.0  T
   7     -7.8681438  0.329192E-04  0.535E-02    1.24       1.0  T
   8     -7.8681690 -0.252595E-04  0.303E-02    1.22       1.1  T
   9     -7.8681735 -0.445621E-05  0.228E-02    1.22       1.5  T
  10     -7.8681763 -0.276409E-05  0.183E-02    1.22       1.8  T
  11     -7.8681771 -0.890879E-06  0.156E-02    1.22       2.1  T
  12     -7.8681775 -0.356290E-06  0.145E-02    1.22       2.3  T
  13     -7.8681791 -0.156694E-05  0.909E-03    1.22       3.7  T
  14     -7.8681800 -0.911221E-06  0.242E-03    1.22      13.8  T
  15     -7.8681800 -0.675107E-07  0.495E-04    1.22      67.4  T
  16     -7.8681801 -0.265354E-08  0.138E-04    1.22     241.2  T
     SCC iter.                  ...        0 min,  0.003 sec
     gradient                   ...        0 min,  0.001 sec
 * total energy  :    -7.6755930 Eh     change       -0.7311121E-02 Eh
   gradient norm :     0.0723986 Eh/α   predicted    -0.9703840E-02 (  32.73%)
   displ. norm   :     0.4191881 α      lambda       -0.1167479E-01
   maximum displ.:     0.1751609 α      in ANC's #3, #12, #2, ...

........................................................................
.............................. CYCLE   12 ..............................
........................................................................
   1     -7.8703682 -0.787037E+01  0.140E+00    1.59       0.0  T
   2     -7.8629869  0.738127E-02  0.975E-01    1.41       1.0  T
   3     -7.7846421  0.783449E-01  0.163E+00    2.43       1.0  T
   4     -7.8541765 -0.695344E-01  0.100E+00    1.34       1.0  T
   5     -7.8665859 -0.124095E-01  0.383E-01    1.73       1.0  T
   6     -7.8719775 -0.539153E-02  0.915E-02    1.58       1.0  T
   7     -7.8718478  0.129644E-03  0.741E-02    1.60       1.0  T
   8     -7.8719805 -0.132653E-03  0.318E-02    1.59       1.0  T
   9     -7.8720007 -0.202513E-04  0.105E-02    1.58       3.2  T
  10     -7.8720040 -0.325522E-05  0.124E-03    1.58      26.8  T
  11     -7.8720040 -0.232175E-07  0.465E-04    1.58      71.7  T
  12     -7.8720040 -0.487184E-10  0.253E-04    1.58     131.5  T
     SCC iter.                  ...        0 min,  0.003 sec
     gradient                   ...        0 min,  0.000 sec
 * total energy  :    -7.6798538 Eh     change       -0.4260840E-02 Eh
   gradient norm :     0.0417499 Eh/α   predicted    -0.6863140E-02 (  61.07%)
   displ. norm   :     0.4969897 α      lambda       -0.8817573E-02
   maximum displ.:     0.1737125 α      in ANC's #11, #3, #7, ...

........................................................................
.............................. CYCLE   13 ..............................
........................................................................
   1     -7.8774884 -0.787749E+01  0.172E+00    1.57       0.0  T
   2     -7.8662810  0.112074E-01  0.118E+00    1.85       1.0  T
   3     -4.4861134  0.338017E+01  0.101E+01    0.99       1.0  T
   4     -7.6374466 -0.315133E+01  0.246E+00    1.02       1.0  T
   5     -7.8778859 -0.240439E+00  0.291E-01    1.62       1.0  T
   6     -7.8757339  0.215198E-02  0.305E-01    1.70       1.0  T
   7     -7.8760312 -0.297231E-03  0.286E-01    1.69       1.0  T
   8     -7.8775328 -0.150167E-02  0.195E-01    1.65       1.0  T
   9     -7.8775170  0.157878E-04  0.192E-01    1.65       1.0  T
  10     -7.8778411 -0.324096E-03  0.163E-01    1.64       1.0  T
  11     -7.8779268 -0.856243E-04  0.151E-01    1.64       1.0  T
  12     -7.8779857 -0.588984E-04  0.140E-01    1.64       1.0  T
  13     -7.8782304 -0.244715E-03  0.789E-02    1.63       1.0  T
  14     -7.8783130 -0.825918E-04  0.385E-02    1.63       1.0  T
  15     -7.8783298 -0.168196E-04  0.202E-02    1.62       1.6  T
  16     -7.8783354 -0.563668E-05  0.669E-03    1.62       5.0  T
  17     -7.8783361 -0.665157E-06  0.207E-03    1.62      16.1  T
  18     -7.8783362 -0.701596E-07  0.659E-04    1.62      50.6  T
  19     -7.8783362 -0.720648E-08  0.167E-04    1.62     199.9  T
     SCC iter.                  ...        0 min,  0.003 sec
     gradient                   ...        0 min,  0.001 sec
 * total energy  :    -7.6834522 Eh     change       -0.3598362E-02 Eh
   gradient norm :     0.0496255 Eh/α   predicted    -0.5497752E-02 (  52.78%)
   displ. norm   :     0.2979359 α      lambda       -0.4703935E-02
   maximum displ.:     0.1606364 α      in ANC's #12, #2, #3, ...

........................................................................
.............................. CYCLE   14 ..............................
........................................................................
   1     -7.8781045 -0.787810E+01  0.105E+00    1.63       0.0  T
   2     -7.8776260  0.478502E-03  0.704E-01    1.57       1.0  T
   3     -7.8176442  0.599818E-01  0.135E+00    2.19       1.0  T
   4     -7.8748946 -0.572504E-01  0.284E-01    1.49       1.0  T
   5     -7.8775555 -0.266085E-02  0.141E-01    1.64       1.0  T
   6     -7.8781992 -0.643710E-03  0.562E-02    1.59       1.0  T
   7     -7.8781904  0.878149E-05  0.186E-02    1.60       1.8  T
   8     -7.8781989 -0.843810E-05  0.842E-03    1.60       4.0  T
   9     -7.8782008 -0.198171E-05  0.204E-03    1.60      16.3  T
  10     -7.8782010 -0.115925E-06  0.204E-04    1.60     163.1  T
  11     -7.8782010 -0.298875E-09  0.668E-05    1.60     499.1  T
     SCC iter.                  ...        0 min,  0.002 sec
     gradient                   ...        0 min,  0.001 sec
 * total energy  :    -7.6855493 Eh     change       -0.2097057E-02 Eh
   gradient norm :     0.0306676 Eh/α   predicted    -0.2560742E-02 (  22.11%)
   displ. norm   :     0.3069078 α      lambda       -0.4501360E-02
   maximum displ.:     0.1328606 α      in ANC's #9, #8, #7, ...

........................................................................
.............................. CYCLE   15 ..............................
........................................................................
   1     -7.8817302 -0.788173E+01  0.723E-01    1.69       0.0  T
   2     -7.8780180  0.371221E-02  0.544E-01    1.55       1.0  T
   3     -7.8076464  0.703716E-01  0.140E+00    2.40       1.0  T
   4     -7.8745784 -0.669321E-01  0.431E-01    1.82       1.0  T
   5     -7.8815022 -0.692377E-02  0.115E-01    1.69       1.0  T
   6     -7.8819279 -0.425689E-03  0.392E-02    1.64       1.0  T
   7     -7.8819177  0.101971E-04  0.207E-02    1.66       1.6  T
   8     -7.8819269 -0.921934E-05  0.120E-02    1.65       2.8  T
   9     -7.8819307 -0.380363E-05  0.335E-03    1.65       9.9  T
  10     -7.8819311 -0.353882E-06  0.591E-04    1.65      56.4  T
  11     -7.8819311 -0.947277E-08  0.193E-04    1.65     172.8  T
     SCC iter.                  ...        0 min,  0.002 sec
     gradient                   ...        0 min,  0.002 sec
 * total energy  :    -7.6861484 Eh     change       -0.5991346E-03 Eh
   gradient norm :     0.0344495 Eh/α   predicted    -0.2462673E-02 ( 311.04%)
   displ. norm   :     0.2399263 α      lambda       -0.3616272E-02
   maximum displ.:     0.1026176 α      in ANC's #8, #13, #3, ...

........................................................................
.............................. CYCLE   16 ..............................
........................................................................
   1     -7.8879328 -0.788793E+01  0.689E-01    1.69       0.0  T
   2     -7.8878136  0.119155E-03  0.456E-01    1.66       1.0  T
   3     -7.8636244  0.241892E-01  0.769E-01    2.06       1.0  T
   4     -7.8879348 -0.243104E-01  0.609E-02    1.70       1.0  T
   5     -7.8877283  0.206541E-03  0.784E-02    1.66       1.0  T
   6     -7.8879603 -0.232006E-03  0.211E-02    1.68       1.6  T
   7     -7.8879632 -0.288135E-05  0.105E-02    1.69       3.2  T
   8     -7.8879670 -0.385804E-05  0.217E-03    1.69      15.4  T
   9     -7.8879670  0.315740E-07  0.173E-03    1.69      19.3  T
  10     -7.8879671 -0.963036E-07  0.273E-04    1.69     122.0  T
  11     -7.8879671 -0.196786E-08  0.446E-05    1.69     746.9  T
     SCC iter.                  ...        0 min,  0.001 sec
     gradient                   ...        0 min,  0.001 sec
 * total energy  :    -7.6880265 Eh     change       -0.1878080E-02 Eh
   gradient norm :     0.0113811 Eh/α   predicted    -0.1912217E-02 (   1.82%)
   displ. norm   :     0.2918397 α      lambda       -0.1568663E-02
   maximum displ.:     0.1419110 α      in ANC's #7, #13, #21, ...

........................................................................
.............................. CYCLE   17 ..............................
........................................................................
   1     -7.8839841 -0.788398E+01  0.884E-01    1.72       0.0  T
   2     -7.8826816  0.130243E-02  0.596E-01    1.83       1.0  T
   3     -7.5909733  0.291708E+00  0.259E+00    1.09       1.0  T
   4     -7.8820130 -0.291040E+00  0.263E-01    1.84       1.0  T
   5     -7.8839588 -0.194579E-02  0.104E-01    1.74       1.0  T
   6     -7.8840129 -0.541150E-04  0.685E-02    1.78       1.0  T
   7     -7.8840722 -0.593378E-04  0.299E-02    1.77       1.1  T
   8     -7.8840816 -0.942137E-05  0.189E-02    1.77       1.8  T
   9     -7.8840895 -0.787421E-05  0.995E-03    1.77       3.3  T
  10     -7.8840918 -0.233020E-05  0.953E-04    1.77      35.0  T
  11     -7.8840918  0.162201E-07  0.942E-04    1.77      35.4  T
  12     -7.8840919 -0.231534E-07  0.807E-05    1.77     412.9  T
     SCC iter.                  ...        0 min,  0.018 sec
     gradient                   ...        0 min,  0.000 sec
 * total energy  :    -7.6879635 Eh     change        0.6293141E-04 Eh
   gradient norm :     0.0370900 Eh/α   predicted    -0.8511320E-03 (*******%)
   displ. norm   :     0.0812174 α      lambda       -0.1611869E-02
   maximum displ.:     0.0327465 α      in ANC's #6, #15, #4, ...

........................................................................
.............................. CYCLE   18 ..............................
........................................................................
   1     -7.8896465 -0.788965E+01  0.227E-01    1.75       0.0  T
   2     -7.8861457  0.350074E-02  0.319E-01    1.61       1.0  T
   3     -7.8856520  0.493712E-03  0.339E-01    1.86       1.0  T
   4     -7.8895662 -0.391421E-02  0.109E-01    1.69       1.0  T
   5     -7.8897576 -0.191330E-03  0.379E-02    1.72       1.0  T
   6     -7.8898098 -0.522854E-04  0.140E-02    1.71       2.4  T
   7     -7.8898136 -0.378331E-05  0.165E-03    1.71      20.2  T
   8     -7.8898137 -0.388279E-07  0.404E-04    1.71      82.4  T
   9     -7.8898137 -0.310608E-09  0.152E-04    1.71     219.5  T
     SCC iter.                  ...        0 min,  0.001 sec
     gradient                   ...        0 min,  0.000 sec
 * total energy  :    -7.6888389 Eh     change       -0.8753108E-03 Eh
   gradient norm :     0.0068022 Eh/α   predicted    -0.8112508E-03 (  -7.32%)
   displ. norm   :     0.1227729 α      lambda       -0.3123604E-03
   maximum displ.:     0.0586689 α      in ANC's #13, #7, #6, ...

........................................................................
.............................. CYCLE   19 ..............................
........................................................................
   1     -7.8858511 -0.788585E+01  0.323E-01    1.74       0.0  T
   2     -7.8857698  0.813158E-04  0.214E-01    1.72       1.0  T
   3     -7.8759991  0.977072E-02  0.467E-01    1.97       1.0  T
   4     -7.8856670 -0.966792E-02  0.119E-01    1.72       1.0  T
   5     -7.8858558 -0.188800E-03  0.236E-02    1.75       1.4  T
   6     -7.8858536  0.218492E-05  0.178E-02    1.73       1.9  T
   7     -7.8858657 -0.121049E-04  0.245E-03    1.74      13.6  T
   8     -7.8858659 -0.163112E-06  0.542E-04    1.74      61.5  T
   9     -7.8858659  0.545642E-09  0.190E-04    1.74     175.1  T
     SCC iter.                  ...        0 min,  0.001 sec
     gradient                   ...        0 min,  0.000 sec
 * total energy  :    -7.6889777 Eh     change       -0.1388710E-03 Eh
   gradient norm :     0.0078863 Eh/α   predicted    -0.1585335E-03 (  14.16%)
   displ. norm   :     0.1865013 α      lambda       -0.4569405E-03
   maximum displ.:     0.0871880 α      in ANC's #13, #1, #7, ...

........................................................................
.............................. CYCLE   20 ..............................
........................................................................
   1     -7.8947041 -0.789470E+01  0.422E-01    1.76       0.0  T
   2     -7.8933149  0.138912E-02  0.317E-01    1.67       1.0  T
   3     -7.8657476  0.275673E-01  0.871E-01    2.17       1.0  T
   4     -7.8938372 -0.280896E-01  0.142E-01    1.81       1.0  T
   5     -7.8947557 -0.918503E-03  0.355E-02    1.74       1.0  T
   6     -7.8947636 -0.787689E-05  0.208E-02    1.75       1.6  T
   7     -7.8947639 -0.260656E-06  0.475E-03    1.75       7.0  T
   8     -7.8947642 -0.342079E-06  0.265E-03    1.75      12.6  T
   9     -7.8947644 -0.181100E-06  0.539E-04    1.75      61.8  T
  10     -7.8947644 -0.699762E-08  0.154E-04    1.75     216.2  T
     SCC iter.                  ...        0 min,  0.002 sec
     gradient                   ...        0 min,  0.001 sec
 * total energy  :    -7.6890778 Eh     change       -0.1000699E-03 Eh
   gradient norm :     0.0120144 Eh/α   predicted    -0.2364170E-03 ( 136.25%)
   displ. norm   :     0.1464613 α      lambda       -0.4302409E-03
   maximum displ.:     0.0725658 α      in ANC's #7, #3, #13, ...
 * RMSD in coord.:     2.0122168 α      energy gain  -0.3691792E+00 Eh

generating ANC from model Hessian ...
Using Lindh-Hessian (1995)
 Shifting diagonal of input Hessian by    1.0172413993265511E-002
 Lowest  eigenvalues of input Hessian
    0.010000    0.010086    0.010112    0.010146    0.010158    0.000000
    0.000000    0.000000    0.000000    0.000000    0.000000    0.010210
    0.010316    0.010430    0.010451    0.010550    0.010780    0.011231
 Highest eigenvalues
    0.213888    0.457139    0.506651    0.574734    0.579350    1.947144


........................................................................
.............................. CYCLE   21 ..............................
........................................................................
   1     -7.8891875 -0.788919E+01  0.437E-01    1.70       0.0  T
   2     -7.8890823  0.105249E-03  0.287E-01    1.73       1.0  T
   3     -7.8732079  0.158744E-01  0.581E-01    1.49       1.0  T
   4     -7.8866180 -0.134101E-01  0.306E-01    1.81       1.0  T
   5     -7.8891892 -0.257115E-02  0.365E-02    1.72       1.0  T
   6     -7.8892226 -0.334192E-04  0.149E-02    1.71       2.2  T
   7     -7.8892228 -0.247770E-06  0.150E-03    1.71      22.2  T
   8     -7.8892228  0.402807E-07  0.114E-03    1.71      29.2  T
   9     -7.8892228 -0.402024E-07  0.297E-04    1.71     112.3  T
  10     -7.8892228 -0.194820E-08  0.544E-05    1.71     613.2  T
     SCC iter.                  ...        0 min,  0.001 sec
     gradient                   ...        0 min,  0.001 sec
 * total energy  :    -7.6892185 Eh     change       -0.1406756E-03 Eh
   gradient norm :     0.0107623 Eh/α   predicted     0.0000000E+00 (-100.00%)
   displ. norm   :     0.1159099 α      lambda       -0.2561765E-03
   maximum displ.:     0.0709411 α      in ANC's #12, #8, #15, ...

........................................................................
.............................. CYCLE   22 ..............................
........................................................................
   1     -7.8891323 -0.788913E+01  0.209E-01    1.72       0.0  T
   2     -7.8889559  0.176384E-03  0.148E-01    1.75       1.0  T
   3     -7.8826299  0.632603E-02  0.402E-01    1.57       1.0  T
   4     -7.8881869 -0.555703E-02  0.148E-01    1.79       1.0  T
   5     -7.8891436 -0.956656E-03  0.153E-02    1.73       2.2  T
   6     -7.8891467 -0.312402E-05  0.933E-03    1.72       3.6  T
   7     -7.8891480 -0.133235E-05  0.155E-03    1.72      21.5  T
   8     -7.8891481 -0.335096E-07  0.258E-04    1.72     129.3  T
   9     -7.8891481  0.217535E-09  0.159E-04    1.72     209.7  T
     SCC iter.                  ...        0 min,  0.001 sec
     gradient                   ...        0 min,  0.000 sec
 * total energy  :    -7.6894063 Eh     change       -0.1878821E-03 Eh
   gradient norm :     0.0033986 Eh/α   predicted    -0.1298097E-03 ( -30.91%)
   displ. norm   :     0.1729719 α      lambda       -0.2081406E-03
   maximum displ.:     0.1270335 α      in ANC's #12, #6, #15, ...

........................................................................
.............................. CYCLE   23 ..............................
........................................................................
   1     -7.8888195 -0.788882E+01  0.271E-01    1.73       0.0  T
   2     -7.8886129  0.206584E-03  0.182E-01    1.76       1.0  T
   3     -7.8775486  0.110643E-01  0.527E-01    1.54       1.0  T
   4     -7.8875132 -0.996454E-02  0.173E-01    1.81       1.0  T
   5     -7.8888286 -0.131547E-02  0.167E-02    1.74       2.0  T
   6     -7.8888380 -0.935155E-05  0.725E-03    1.73       4.6  T
   7     -7.8888383 -0.364315E-06  0.158E-03    1.73      21.1  T
   8     -7.8888384 -0.360984E-07  0.362E-04    1.73      92.2  T
   9     -7.8888384  0.447554E-09  0.181E-04    1.73     184.1  T
     SCC iter.                  ...        0 min,  0.002 sec
     gradient                   ...        0 min,  0.001 sec
 * total energy  :    -7.6895530 Eh     change       -0.1466160E-03 Eh
   gradient norm :     0.0052679 Eh/α   predicted    -0.1071852E-03 ( -26.89%)
   displ. norm   :     0.1542894 α      lambda       -0.1256812E-03
   maximum displ.:     0.1120123 α      in ANC's #12, #6, #11, ...

........................................................................
.............................. CYCLE   24 ..............................
........................................................................
   1     -7.8882449 -0.788824E+01  0.284E-01    1.74       0.0  T
   2     -7.8882261  0.188201E-04  0.172E-01    1.75       1.0  T
   3     -7.8848487  0.337737E-02  0.294E-01    1.62       1.0  T
   4     -7.8880216 -0.317289E-02  0.711E-02    1.77       1.0  T
   5     -7.8882479 -0.226327E-03  0.987E-03    1.74       3.4  T
   6     -7.8882469  0.105950E-05  0.595E-03    1.74       5.6  T
   7     -7.8882479 -0.106759E-05  0.954E-04    1.74      35.0  T
   8     -7.8882479 -0.680205E-08  0.176E-04    1.74     189.7  T
   9     -7.8882479 -0.350544E-09  0.512E-05    1.74     651.3  T
     SCC iter.                  ...        0 min,  0.001 sec
     gradient                   ...        0 min,  0.000 sec
 * total energy  :    -7.6896474 Eh     change       -0.9446712E-04 Eh
   gradient norm :     0.0075373 Eh/α   predicted    -0.6433891E-04 ( -31.89%)
   displ. norm   :     0.2262542 α      lambda       -0.1856851E-03
   maximum displ.:     0.1619718 α      in ANC's #12, #3, #6, ...

........................................................................
.............................. CYCLE   25 ..............................
........................................................................
   1     -7.8886291 -0.788863E+01  0.453E-01    1.73       0.0  T
   2     -7.8885736  0.554614E-04  0.292E-01    1.75       1.0  T
   3     -7.8734316  0.151420E-01  0.587E-01    1.51       1.0  T
   4     -7.8885618 -0.151302E-01  0.522E-02    1.75       1.0  T
   5     -7.8886223 -0.605310E-04  0.326E-02    1.72       1.0  T
   6     -7.8886363 -0.140233E-04  0.109E-02    1.73       3.1  T
   7     -7.8886395 -0.313934E-05  0.198E-03    1.73      16.9  T
   8     -7.8886395 -0.817467E-08  0.882E-04    1.73      37.8  T
   9     -7.8886395 -0.248465E-07  0.204E-04    1.73     163.5  T
     SCC iter.                  ...        0 min,  0.002 sec
     gradient                   ...        0 min,  0.000 sec
 * total energy  :    -7.6897870 Eh     change       -0.1395301E-03 Eh
   gradient norm :     0.0064784 Eh/α   predicted    -0.9759531E-04 ( -30.05%)
   displ. norm   :     0.2892558 α      lambda       -0.1937227E-03
   maximum displ.:     0.2033091 α      in ANC's #12, #3, #11, ...

........................................................................
.............................. CYCLE   26 ..............................
........................................................................
   1     -7.8877258 -0.788773E+01  0.545E-01    1.73       0.0  T
   2     -7.8877201  0.569727E-05  0.333E-01    1.74       1.0  T
   3     -7.8855725  0.214755E-02  0.217E-01    1.64       1.0  T
   4     -7.8876976 -0.212509E-02  0.537E-02    1.75       1.0  T
   5     -7.8877283 -0.306998E-04  0.332E-02    1.74       1.0  T
   6     -7.8877342 -0.587275E-05  0.281E-03    1.73      11.9  T
   7     -7.8877342 -0.180996E-08  0.160E-03    1.73      20.8  T
   8     -7.8877342 -0.217447E-07  0.334E-04    1.73      99.9  T
   9     -7.8877342 -0.474399E-09  0.167E-04    1.73     199.6  T
     SCC iter.                  ...        0 min,  0.001 sec
     gradient                   ...        0 min,  0.000 sec
 * total energy  :    -7.6899038 Eh     change       -0.1168055E-03 Eh
   gradient norm :     0.0067571 Eh/α   predicted    -0.1049669E-03 ( -10.14%)
   displ. norm   :     0.1822013 α      lambda       -0.8592219E-04
   maximum displ.:     0.1187817 α      in ANC's #12, #3, #6, ...

........................................................................
.............................. CYCLE   27 ..............................
........................................................................
   1     -7.8873438 -0.788734E+01  0.388E-01    1.73       0.0  T
   2     -7.8872302  0.113579E-03  0.254E-01    1.70       1.0  T
   3     -7.8743014  0.129288E-01  0.592E-01    1.98       1.0  T
   4     -7.8868247 -0.125233E-01  0.113E-01    1.67       1.0  T
   5     -7.8873276 -0.502921E-03  0.344E-02    1.73       1.0  T
   6     -7.8873427 -0.150197E-04  0.222E-02    1.71       1.5  T
   7     -7.8873581 -0.153963E-04  0.225E-03    1.72      14.8  T
   8     -7.8873582 -0.117626E-06  0.767E-04    1.72      43.5  T
   9     -7.8873582 -0.818546E-08  0.177E-04    1.72     188.4  T
     SCC iter.                  ...        0 min,  0.001 sec
     gradient                   ...        0 min,  0.000 sec
 * total energy  :    -7.6899186 Eh     change       -0.1483152E-04 Eh
   gradient norm :     0.0065408 Eh/α   predicted    -0.4438612E-04 ( 199.27%)
   displ. norm   :     0.0892569 α      lambda       -0.1301859E-03
   maximum displ.:     0.0523002 α      in ANC's #12, #6, #3, ...

........................................................................
.............................. CYCLE   28 ..............................
........................................................................
   1     -7.8922387 -0.789224E+01  0.171E-01    1.72       0.0  T
   2     -7.8920664  0.172363E-03  0.125E-01    1.68       1.0  T
   3     -7.8878632  0.420314E-02  0.335E-01    1.85       1.0  T
   4     -7.8920485 -0.418525E-02  0.710E-02    1.68       1.0  T
   5     -7.8922416 -0.193154E-03  0.159E-02    1.71       2.1  T
   6     -7.8922478 -0.617524E-05  0.808E-03    1.70       4.1  T
   7     -7.8922491 -0.132711E-05  0.687E-04    1.71      48.5  T
   8     -7.8922491 -0.520601E-08  0.186E-04    1.71     178.9  T
   9     -7.8922491 -0.140306E-10  0.594E-05    1.71     561.5  T
     SCC iter.                  ...        0 min,  0.001 sec
     gradient                   ...        0 min,  0.000 sec
 * total energy  :    -7.6899000 Eh     change        0.1857064E-04 Eh
   gradient norm :     0.0117728 Eh/α   predicted    -0.6561270E-04 (-453.31%)
   displ. norm   :     0.0510952 α      lambda       -0.1515698E-03
   maximum displ.:     0.0260518 α      in ANC's #1, #8, #6, ...

........................................................................
.............................. CYCLE   29 ..............................
........................................................................
   1     -7.8892379 -0.788924E+01  0.230E-01    1.72       0.0  T
   2     -7.8891344  0.103552E-03  0.160E-01    1.75       1.0  T
   3     -7.8826742  0.646015E-02  0.412E-01    1.58       1.0  T
   4     -7.8879491 -0.527490E-02  0.170E-01    1.81       1.0  T
   5     -7.8892473 -0.129815E-02  0.167E-02    1.74       2.0  T
   6     -7.8892487 -0.143052E-05  0.108E-02    1.73       3.1  T
   7     -7.8892514 -0.272075E-05  0.168E-03    1.73      19.8  T
   8     -7.8892515 -0.571173E-07  0.240E-04    1.73     138.7  T
   9     -7.8892515  0.770095E-10  0.997E-05    1.73     334.2  T
     SCC iter.                  ...        0 min,  0.001 sec
     gradient                   ...        0 min,  0.001 sec
 * total energy  :    -7.6899759 Eh     change       -0.7589858E-04 Eh
   gradient norm :     0.0017123 Eh/α   predicted    -0.7598288E-04 (   0.11%)
   displ. norm   :     0.1173419 α      lambda       -0.3027159E-04
   maximum displ.:     0.0662250 α      in ANC's #3, #12, #9, ...

........................................................................
.............................. CYCLE   30 ..............................
........................................................................
   1     -7.8884718 -0.788847E+01  0.238E-01    1.73       0.0  T
   2     -7.8884572  0.146444E-04  0.154E-01    1.72       1.0  T
   3     -7.8856158  0.284142E-02  0.268E-01    1.85       1.0  T
   4     -7.8884142 -0.279846E-02  0.409E-02    1.72       1.0  T
   5     -7.8884703 -0.560416E-04  0.178E-02    1.73       1.9  T
   6     -7.8884733 -0.304251E-05  0.624E-03    1.73       5.3  T
   7     -7.8884749 -0.160913E-05  0.939E-04    1.73      35.5  T
   8     -7.8884749 -0.172259E-07  0.205E-04    1.73     162.7  T
   9     -7.8884749 -0.853074E-09  0.836E-05    1.73     398.9  T
     SCC iter.                  ...        0 min,  0.001 sec
     gradient                   ...        0 min,  0.000 sec
 * total energy  :    -7.6900022 Eh     change       -0.2625352E-04 Eh
   gradient norm :     0.0036647 Eh/α   predicted    -0.1522759E-04 ( -42.00%)
   displ. norm   :     0.1179363 α      lambda       -0.4020281E-04
   maximum displ.:     0.0675402 α      in ANC's #3, #12, #9, ...

........................................................................
.............................. CYCLE   31 ..............................
........................................................................
   1     -7.8886362 -0.788864E+01  0.213E-01    1.73       0.0  T
   2     -7.8886266  0.958494E-05  0.137E-01    1.73       1.0  T
   3     -7.8865666  0.205997E-02  0.221E-01    1.83       1.0  T
   4     -7.8886356 -0.206904E-02  0.185E-02    1.73       1.8  T
   5     -7.8886342  0.142955E-05  0.126E-02    1.74       2.6  T
   6     -7.8886377 -0.346987E-05  0.393E-03    1.73       8.5  T
   7     -7.8886383 -0.635271E-06  0.835E-04    1.73      39.9  T
   8     -7.8886383 -0.140953E-07  0.181E-04    1.73     184.0  T
     SCC iter.                  ...        0 min,  0.001 sec
     gradient                   ...        0 min,  0.000 sec
 * total energy  :    -7.6900386 Eh     change       -0.3646679E-04 Eh
   gradient norm :     0.0035799 Eh/α   predicted    -0.2038122E-04 ( -44.11%)
   displ. norm   :     0.4320466 α      lambda       -0.1599051E-03
   maximum displ.:     0.2409441 α      in ANC's #3, #12, #10, ...

........................................................................
.............................. CYCLE   32 ..............................
........................................................................
   1     -7.8888062 -0.788881E+01  0.781E-01    1.74       0.0  T
   2     -7.8886896  0.116607E-03  0.504E-01    1.72       1.0  T
   3     -7.8666225  0.220671E-01  0.746E-01    2.10       1.0  T
   4     -7.8888360 -0.222135E-01  0.625E-02    1.74       1.0  T
   5     -7.8888203  0.156922E-04  0.380E-02    1.73       1.0  T
   6     -7.8887707  0.495759E-04  0.383E-02    1.73       1.0  T
   7     -7.8888360 -0.652624E-04  0.651E-03    1.74       5.1  T
   8     -7.8888375 -0.148926E-05  0.208E-03    1.74      16.0  T
   9     -7.8888376 -0.587720E-07  0.764E-04    1.74      43.6  T
  10     -7.8888376 -0.135763E-07  0.270E-04    1.74     123.3  T
     SCC iter.                  ...        0 min,  0.002 sec
     gradient                   ...        0 min,  0.000 sec
 * total energy  :    -7.6901453 Eh     change       -0.1066900E-03 Eh
   gradient norm :     0.0035161 Eh/α   predicted    -0.9487665E-04 ( -11.07%)
   displ. norm   :     0.2385973 α      lambda       -0.6575210E-04
   maximum displ.:     0.1133080 α      in ANC's #10, #3, #12, ...

........................................................................
.............................. CYCLE   33 ..............................
........................................................................
   1     -7.8894012 -0.788940E+01  0.364E-01    1.75       0.0  T
   2     -7.8893709  0.302977E-04  0.235E-01    1.73       1.0  T
   3     -7.8830756  0.629523E-02  0.385E-01    1.92       1.0  T
   4     -7.8894059 -0.633023E-02  0.291E-02    1.75       1.1  T
   5     -7.8893607  0.452005E-04  0.362E-02    1.73       1.0  T
   6     -7.8894061 -0.454467E-04  0.745E-03    1.74       4.5  T
   7     -7.8894080 -0.188091E-05  0.155E-03    1.75      21.5  T
   8     -7.8894080 -0.443274E-07  0.562E-04    1.75      59.4  T
   9     -7.8894080 -0.943914E-08  0.107E-04    1.75     310.1  T
     SCC iter.                  ...        0 min,  0.001 sec
     gradient                   ...        0 min,  0.000 sec
 * total energy  :    -7.6901919 Eh     change       -0.4654045E-04 Eh
   gradient norm :     0.0031912 Eh/α   predicted    -0.3474945E-04 ( -25.33%)
   displ. norm   :     0.4278724 α      lambda       -0.1159122E-03
   maximum displ.:     0.1978093 α      in ANC's #3, #10, #12, ...

........................................................................
.............................. CYCLE   34 ..............................
........................................................................
   1     -7.8902492 -0.789025E+01  0.578E-01    1.75       0.0  T
   2     -7.8902508 -0.157161E-05  0.368E-01    1.75       1.0  T
   3     -7.8890581  0.119262E-02  0.167E-01    1.83       1.0  T
   4     -7.8900460 -0.987836E-03  0.905E-02    1.72       1.0  T
   5     -7.8902447 -0.198738E-03  0.456E-02    1.75       1.0  T
   6     -7.8902637 -0.190137E-04  0.326E-03    1.75      10.2  T
   7     -7.8902638 -0.398857E-07  0.189E-03    1.75      17.6  T
   8     -7.8902638 -0.333043E-07  0.246E-04    1.75     135.4  T
   9     -7.8902638  0.129699E-08  0.193E-04    1.75     172.4  T
     SCC iter.                  ...        0 min,  0.001 sec
     gradient                   ...        0 min,  0.001 sec
 * total energy  :    -7.6902021 Eh     change       -0.1023207E-04 Eh
   gradient norm :     0.0079809 Eh/α   predicted    -0.6856364E-04 ( 570.09%)
   displ. norm   :     0.2709707 α      lambda       -0.1550580E-03
   maximum displ.:     0.1491463 α      in ANC's #12, #3, #10, ...

........................................................................
.............................. CYCLE   35 ..............................
........................................................................
   1     -7.8852526 -0.788525E+01  0.336E-01    1.75       0.0  T
   2     -7.8851703  0.823711E-04  0.210E-01    1.78       1.0  T
   3     -7.8707982  0.143720E-01  0.576E-01    1.54       1.0  T
   4     -7.8851358 -0.143376E-01  0.561E-02    1.78       1.0  T
   5     -7.8852583 -0.122545E-03  0.161E-02    1.76       2.1  T
   6     -7.8852563  0.200915E-05  0.110E-02    1.75       3.0  T
   7     -7.8852589 -0.255821E-05  0.129E-03    1.76      25.9  T
   8     -7.8852589  0.382471E-08  0.657E-04    1.76      50.7  T
   9     -7.8852589 -0.962825E-08  0.118E-04    1.76     283.4  T
     SCC iter.                  ...        0 min,  0.001 sec
     gradient                   ...        0 min,  0.000 sec
 * total energy  :    -7.6902525 Eh     change       -0.5039321E-04 Eh
   gradient norm :     0.0094136 Eh/α   predicted    -0.8322270E-04 (  65.15%)
   displ. norm   :     0.2480581 α      lambda       -0.3892722E-03
   maximum displ.:     0.1378373 α      in ANC's #3, #12, #5, ...

........................................................................
.............................. CYCLE   36 ..............................
........................................................................
   1     -7.8941093 -0.789411E+01  0.673E-01    1.76       0.0  T
   2     -7.8935177  0.591653E-03  0.429E-01    1.69       1.0  T
   3     -7.8430766  0.504410E-01  0.115E+00    2.33       1.0  T
   4     -7.8929334 -0.498567E-01  0.169E-01    1.80       1.0  T
   5     -7.8941289 -0.119558E-02  0.513E-02    1.72       1.0  T
   6     -7.8941297 -0.752064E-06  0.353E-02    1.72       1.0  T
   7     -7.8941509 -0.212245E-04  0.361E-03    1.73       9.2  T
   8     -7.8941510 -0.924334E-07  0.178E-03    1.73      18.7  T
   9     -7.8941510  0.130952E-07  0.885E-04    1.73      37.7  T
  10     -7.8941510 -0.155821E-07  0.290E-04    1.73     115.1  T
     SCC iter.                  ...        0 min,  0.001 sec
     gradient                   ...        0 min,  0.000 sec
 * total energy  :    -7.6898264 Eh     change        0.4260683E-03 Eh
   gradient norm :     0.0239997 Eh/α   predicted    -0.2066124E-03 (-148.49%)
   displ. norm   :     0.1361908 α      lambda       -0.9230924E-03
   maximum displ.:     0.0645530 α      in ANC's #3, #5, #10, ...

........................................................................
.............................. CYCLE   37 ..............................
........................................................................
   1     -7.8909043 -0.789090E+01  0.392E-01    1.73       0.0  T
   2     -7.8908059  0.984539E-04  0.248E-01    1.76       1.0  T
   3     -7.8691112  0.216947E-01  0.684E-01    1.48       1.0  T
   4     -7.8909053 -0.217941E-01  0.448E-02    1.74       1.0  T
   5     -7.8909083 -0.301989E-05  0.302E-02    1.74       1.1  T
   6     -7.8909109 -0.257509E-05  0.134E-02    1.74       2.5  T
   7     -7.8909158 -0.498319E-05  0.218E-03    1.74      15.3  T
   8     -7.8909159 -0.595540E-07  0.110E-03    1.74      30.3  T
   9     -7.8909159 -0.392905E-07  0.259E-04    1.74     128.9  T
  10     -7.8909159 -0.125998E-08  0.595E-05    1.74     560.0  T
     SCC iter.                  ...        0 min,  0.002 sec
     gradient                   ...        0 min,  0.000 sec
 * total energy  :    -7.6903163 Eh     change       -0.4898224E-03 Eh
   gradient norm :     0.0035235 Eh/α   predicted    -0.4701070E-03 (  -4.02%)
   displ. norm   :     0.3354303 α      lambda       -0.8295197E-04
   maximum displ.:     0.1669976 α      in ANC's #12, #3, #10, ...

........................................................................
.............................. CYCLE   38 ..............................
........................................................................
   1     -7.8869716 -0.788697E+01  0.419E-01    1.74       0.0  T
   2     -7.8868840  0.876019E-04  0.264E-01    1.77       1.0  T
   3     -7.8682673  0.186167E-01  0.653E-01    1.50       1.0  T
   4     -7.8868673 -0.185999E-01  0.600E-02    1.77       1.0  T
   5     -7.8869699 -0.102577E-03  0.319E-02    1.74       1.0  T
   6     -7.8869761 -0.623021E-05  0.150E-02    1.75       2.2  T
   7     -7.8869818 -0.571929E-05  0.164E-03    1.75      20.3  T
   8     -7.8869818 -0.865515E-08  0.875E-04    1.75      38.1  T
   9     -7.8869818 -0.211108E-07  0.149E-04    1.75     224.3  T
     SCC iter.                  ...        0 min,  0.001 sec
     gradient                   ...        0 min,  0.000 sec
 * total energy  :    -7.6903547 Eh     change       -0.3843253E-04 Eh
   gradient norm :     0.0056796 Eh/α   predicted    -0.4614101E-04 (  20.06%)
   displ. norm   :     0.1366886 α      lambda       -0.3810676E-04
   maximum displ.:     0.0868043 α      in ANC's #10, #12, #3, ...

........................................................................
.............................. CYCLE   39 ..............................
........................................................................
   1     -7.8877509 -0.788775E+01  0.114E-01    1.75       0.0  T
   2     -7.8877116  0.392503E-04  0.751E-02    1.73       1.0  T
   3     -7.8850793  0.263235E-02  0.252E-01    1.86       1.0  T
   4     -7.8877502 -0.267089E-02  0.104E-02    1.75       3.2  T
   5     -7.8877503 -0.945810E-07  0.851E-03    1.74       3.9  T
   6     -7.8877527 -0.244775E-05  0.305E-03    1.75      10.9  T
   7     -7.8877528 -0.124147E-06  0.352E-04    1.75      94.7  T
   8     -7.8877528  0.154285E-10  0.153E-04    1.75     217.7  T
     SCC iter.                  ...        0 min,  0.001 sec
     gradient                   ...        0 min,  0.000 sec
 * total energy  :    -7.6903838 Eh     change       -0.2906520E-04 Eh
   gradient norm :     0.0037671 Eh/α   predicted    -0.1940995E-04 ( -33.22%)
   displ. norm   :     0.3370648 α      lambda       -0.1118330E-03
   maximum displ.:     0.2081546 α      in ANC's #10, #3, #12, ...

........................................................................
.............................. CYCLE   40 ..............................
........................................................................
   1     -7.8902864 -0.789029E+01  0.278E-01    1.75       0.0  T
   2     -7.8902220  0.644330E-04  0.169E-01    1.73       1.0  T
   3     -7.8824304  0.779153E-02  0.431E-01    1.95       1.0  T
   4     -7.8902676 -0.783714E-02  0.245E-02    1.75       1.4  T
   5     -7.8902883 -0.207509E-04  0.118E-02    1.74       2.8  T
   6     -7.8902887 -0.339471E-06  0.710E-03    1.74       4.7  T
   7     -7.8902901 -0.140421E-05  0.907E-04    1.74      36.8  T
   8     -7.8902901 -0.155209E-07  0.363E-04    1.74      91.8  T
   9     -7.8902901 -0.146826E-08  0.686E-05    1.74     485.6  T
     SCC iter.                  ...        0 min,  0.002 sec
     gradient                   ...        0 min,  0.000 sec
 * total energy  :    -7.6904356 Eh     change       -0.5187545E-04 Eh
   gradient norm :     0.0043081 Eh/α   predicted    -0.6226801E-04 (  20.03%)
   displ. norm   :     0.4986666 α      lambda       -0.9311431E-04
   maximum displ.:     0.2747811 α      in ANC's #10, #12, #3, ...

........................................................................
.............................. CYCLE   41 ..............................
........................................................................
   1     -7.8870712 -0.788707E+01  0.466E-01    1.74       0.0  T
   2     -7.8870742 -0.300736E-05  0.285E-01    1.74       1.0  T
   3     -7.8870333  0.408381E-04  0.449E-02    1.76       1.0  T
   4     -7.8867029  0.330471E-03  0.946E-02    1.71       1.0  T
   5     -7.8870698 -0.366948E-03  0.299E-02    1.74       1.1  T
   6     -7.8870768 -0.700728E-05  0.326E-03    1.75      10.2  T
   7     -7.8870770 -0.204436E-06  0.110E-03    1.74      30.3  T
   8     -7.8870770 -0.563769E-09  0.315E-04    1.74     105.9  T
   9     -7.8870770 -0.146851E-10  0.470E-05    1.74     709.7  T
     SCC iter.                  ...        0 min,  0.002 sec
     gradient                   ...        0 min,  0.000 sec
 * total energy  :    -7.6904909 Eh     change       -0.5529533E-04 Eh
   gradient norm :     0.0042557 Eh/α   predicted    -0.5813112E-04 (   5.13%)
   displ. norm   :     0.1378146 α      lambda       -0.4463170E-04
   maximum displ.:     0.0701648 α      in ANC's #10, #7, #11, ...

........................................................................
.............................. CYCLE   42 ..............................
........................................................................
   1     -7.8883585 -0.788836E+01  0.937E-02    1.75       0.0  T
   2     -7.8883451  0.133835E-04  0.582E-02    1.74       1.0  T
   3     -7.8869476  0.139750E-02  0.178E-01    1.83       1.0  T
   4     -7.8883554 -0.140772E-02  0.145E-02    1.75       2.3  T
   5     -7.8883594 -0.405714E-05  0.333E-03    1.75      10.0  T
   6     -7.8883593  0.969949E-07  0.198E-03    1.75      16.8  T
   7     -7.8883594 -0.113942E-06  0.492E-04    1.75      67.7  T
   8     -7.8883594 -0.455987E-08  0.985E-05    1.75     338.5  T
     SCC iter.                  ...        0 min,  0.001 sec
     gradient                   ...        0 min,  0.000 sec
 * total energy  :    -7.6905197 Eh     change       -0.2879802E-04 Eh
   gradient norm :     0.0039579 Eh/α   predicted    -0.2274083E-04 ( -21.03%)
   displ. norm   :     0.2570471 α      lambda       -0.5571076E-04
   maximum displ.:     0.1265922 α      in ANC's #10, #9, #11, ...
 * RMSD in coord.:     1.2949816 α      energy gain  -0.1441932E-02 Eh

generating ANC from model Hessian ...
Using Lindh-Hessian (1995)
 Shifting diagonal of input Hessian by    1.0205334710459169E-002
 Lowest  eigenvalues of input Hessian
    0.010000    0.010109    0.010154    0.010162    0.010184    0.010199
    0.000000    0.000000    0.000000    0.000000    0.000000    0.000000
    0.010206    0.010243    0.010316    0.010526    0.010733    0.010917
 Highest eigenvalues
    0.219568    0.462855    0.529388    0.558727    0.576835    1.939897


........................................................................
.............................. CYCLE   43 ..............................
........................................................................
   1     -7.8895775 -0.788958E+01  0.204E-01    1.75       0.0  T
   2     -7.8894953  0.821389E-04  0.132E-01    1.72       1.0  T
   3     -7.8844741  0.502118E-02  0.365E-01    1.90       1.0  T
   4     -7.8893599 -0.488578E-02  0.726E-02    1.71       1.0  T
   5     -7.8895809 -0.220946E-03  0.124E-02    1.75       2.7  T
   6     -7.8895823 -0.139126E-05  0.884E-03    1.74       3.8  T
   7     -7.8895842 -0.196989E-05  0.135E-03    1.74      24.6  T
   8     -7.8895843 -0.395452E-07  0.221E-04    1.74     150.8  T
   9     -7.8895843  0.967670E-10  0.113E-04    1.74     294.3  T
     SCC iter.                  ...        0 min,  0.001 sec
     gradient                   ...        0 min,  0.000 sec
 * total energy  :    -7.6905522 Eh     change       -0.3246971E-04 Eh
   gradient norm :     0.0017542 Eh/α   predicted     0.0000000E+00 (-100.00%)
   displ. norm   :     0.0477040 α      lambda       -0.1637133E-04
   maximum displ.:     0.0250137 α      in ANC's #4, #10, #6, ...

........................................................................
.............................. CYCLE   44 ..............................
........................................................................
   1     -7.8891098 -0.788911E+01  0.929E-02    1.75       0.0  T
   2     -7.8891093  0.498471E-06  0.561E-02    1.74       1.0  T
   3     -7.8890154  0.939451E-04  0.449E-02    1.77       1.0  T
   4     -7.8891060 -0.906008E-04  0.137E-02    1.74       2.4  T
   5     -7.8891100 -0.398841E-05  0.262E-03    1.75      12.7  T
   6     -7.8891100 -0.276765E-08  0.474E-04    1.75      70.4  T
   7     -7.8891100 -0.123067E-08  0.188E-04    1.75     177.5  T
     SCC iter.                  ...        0 min,  0.001 sec
     gradient                   ...        0 min,  0.000 sec
 * total energy  :    -7.6905683 Eh     change       -0.1614405E-04 Eh
   gradient norm :     0.0007355 Eh/α   predicted    -0.8193680E-05 ( -49.25%)
   displ. norm   :     0.0727256 α      lambda       -0.1257759E-04
   maximum displ.:     0.0436873 α      in ANC's #10, #4, #6, ...

........................................................................
.............................. CYCLE   45 ..............................
........................................................................
   1     -7.8887796 -0.788878E+01  0.137E-01    1.75       0.0  T
   2     -7.8887669  0.127149E-04  0.858E-02    1.76       1.0  T
[...]
   gradient norm :     0.0022133 Eh/α   predicted    -0.1936977E-04 (  -2.34%)
   displ. norm   :     0.0355112 α      lambda       -0.1685888E-04
   maximum displ.:     0.0172338 α      in ANC's #9, #2, #1, ...

........................................................................
.............................. CYCLE   80 ..............................
........................................................................
   1     -7.8898931 -0.788989E+01  0.669E-02    2.23       0.0  T
   2     -7.8898783  0.147577E-04  0.445E-02    2.22       1.0  T
   3     -7.8894177  0.460565E-03  0.121E-01    2.26       1.0  T
   4     -7.8898902 -0.472465E-03  0.135E-02    2.22       2.5  T
   5     -7.8898942 -0.402898E-05  0.289E-03    2.22      11.5  T
   6     -7.8898940  0.186076E-06  0.232E-03    2.22      14.4  T
   7     -7.8898942 -0.185501E-06  0.504E-04    2.22      66.1  T
   8     -7.8898942 -0.300743E-08  0.637E-05    2.22     523.6  T
     SCC iter.                  ...        0 min,  0.001 sec
     gradient                   ...        0 min,  0.000 sec
 * total energy  :    -7.6968734 Eh     change       -0.9053748E-05 Eh
   gradient norm :     0.0014179 Eh/α   predicted    -0.8439731E-05 (  -6.78%)
   displ. norm   :     0.1123276 α      lambda       -0.6459762E-05
   maximum displ.:     0.0696108 α      in ANC's #7, #2, #4, ...

........................................................................
.............................. CYCLE   81 ..............................
........................................................................
   1     -7.8897571 -0.788976E+01  0.151E-01    2.22       0.0  T
   2     -7.8897574 -0.308775E-06  0.973E-02    2.22       1.0  T
   3     -7.8897539  0.356195E-05  0.140E-02    2.22       2.4  T
   4     -7.8897499  0.394783E-05  0.163E-02    2.22       2.0  T
   5     -7.8897555 -0.559562E-05  0.893E-03    2.22       3.7  T
   6     -7.8897577 -0.219757E-05  0.111E-03    2.22      30.1  T
   7     -7.8897577 -0.224584E-07  0.341E-04    2.22      97.7  T
   8     -7.8897577 -0.123196E-08  0.541E-05    2.22     615.9  T
     SCC iter.                  ...        0 min,  0.001 sec
     gradient                   ...        0 min,  0.000 sec
 * total energy  :    -7.6968788 Eh     change       -0.5474445E-05 Eh
   gradient norm :     0.0011191 Eh/α   predicted    -0.3246747E-05 ( -40.69%)
   displ. norm   :     0.0885379 α      lambda       -0.5638505E-05
   maximum displ.:     0.0615840 α      in ANC's #7, #2, #5, ...

........................................................................
.............................. CYCLE   82 ..............................
........................................................................
   1     -7.8895471 -0.788955E+01  0.117E-01    2.21       0.0  T
   2     -7.8895420  0.518443E-05  0.746E-02    2.22       1.0  T
   3     -7.8888401  0.701872E-03  0.142E-01    2.16       1.0  T
   4     -7.8895451 -0.705050E-03  0.113E-02    2.21       3.0  T
   5     -7.8895472 -0.201682E-05  0.644E-03    2.21       5.2  T
   6     -7.8895477 -0.537417E-06  0.141E-03    2.21      23.6  T
   7     -7.8895477  0.186061E-07  0.974E-04    2.21      34.2  T
   8     -7.8895477 -0.322599E-07  0.896E-05    2.21     372.0  T
     SCC iter.                  ...        0 min,  0.001 sec
     gradient                   ...        0 min,  0.000 sec
 * total energy  :    -7.6968813 Eh     change       -0.2494656E-05 Eh
   gradient norm :     0.0016274 Eh/α   predicted    -0.2829376E-05 (  13.42%)
   displ. norm   :     0.0358078 α      lambda       -0.6417423E-05
   maximum displ.:     0.0182952 α      in ANC's #4, #7, #2, ...

........................................................................
.............................. CYCLE   83 ..............................
........................................................................
   1     -7.8898543 -0.788985E+01  0.832E-02    2.22       0.0  T
   2     -7.8898504  0.386194E-05  0.505E-02    2.22       1.0  T
   3     -7.8894402  0.410195E-03  0.108E-01    2.26       1.0  T
   4     -7.8898536 -0.413409E-03  0.748E-03    2.22       4.5  T
   5     -7.8898545 -0.867651E-06  0.316E-03    2.22      10.6  T
   6     -7.8898545 -0.575816E-07  0.138E-03    2.22      24.1  T
   7     -7.8898546 -0.564989E-07  0.222E-04    2.22     150.3  T
   8     -7.8898546  0.417609E-09  0.136E-04    2.22     244.8  T
     SCC iter.                  ...        0 min,  0.001 sec
     gradient                   ...        0 min,  0.001 sec
 * total energy  :    -7.6968864 Eh     change       -0.5054994E-05 Eh
   gradient norm :     0.0006856 Eh/α   predicted    -0.3209101E-05 ( -36.52%)
   displ. norm   :     0.0200589 α      lambda       -0.1947714E-05
   maximum displ.:     0.0136744 α      in ANC's #9, #11, #1, ...

........................................................................
.............................. CYCLE   84 ..............................
........................................................................
   1     -7.8895983 -0.788960E+01  0.423E-02    2.22       0.0  T
   2     -7.8895983  0.171440E-07  0.256E-02    2.22       1.3  T
   3     -7.8895942  0.413020E-05  0.112E-02    2.22       3.0  T
   4     -7.8895982 -0.408789E-05  0.253E-03    2.22      13.2  T
   5     -7.8895982 -0.221259E-08  0.198E-03    2.22      16.9  T
   6     -7.8895983 -0.779220E-07  0.137E-04    2.22     242.6  T
   7     -7.8895983 -0.143778E-10  0.771E-05    2.22     432.1  T
     SCC iter.                  ...        0 min,  0.001 sec
     gradient                   ...        0 min,  0.000 sec
 * total energy  :    -7.6968881 Eh     change       -0.1744861E-05 Eh
   gradient norm :     0.0004413 Eh/α   predicted    -0.9743543E-06 ( -44.16%)
   displ. norm   :     0.0185815 α      lambda       -0.1080311E-05
   maximum displ.:     0.0136187 α      in ANC's #9, #2, #6, ...

   *** GEOMETRY OPTIMIZATION CONVERGED AFTER 84 ITERATIONS ***

------------------------------------------------------------------------
 total energy gain   :        -0.3769896 Eh     -236.5645 kcal/mol
 total RMSD          :         4.1811150 a0        2.2126 Å
 total power (kW/mol):       -11.7831667 (step)-4788.2587 (real)
------------------------------------------------------------------------

 ANCopt (total)                0 d,  0 h,  0 min,  0.207 sec
 optimizer setup                ...        0 min,  0.000 sec (  0.012%)
 model hessian                  ...        0 min,  0.001 sec (  0.249%)
 ANC generation                 ...        0 min,  0.000 sec (  0.115%)
 coordinate transformation      ...        0 min,  0.000 sec (  0.093%)
 single point calculation       ...        0 min,  0.199 sec ( 96.097%)
 optimization log               ...        0 min,  0.002 sec (  1.121%)
 hessian update                 ...        0 min,  0.002 sec (  0.929%)
 rational function              ...        0 min,  0.001 sec (  0.659%)

================
 final structure:
================
9
 xtb: 6.5.1 (conda-forge)
Be           0.24811877219999        1.51095287589128        1.99755877215201
C            2.09595745444214       -0.55244068833789        1.48235045672406
C            1.28864680780095        0.37191774702783        1.71005936887260
H            4.01191467457179       -0.84807761373875        2.22737188851607
H            4.74755266353954       -0.93624714124968        2.53071138086717
H           -0.73113257454001        2.60982323365502        2.29807357448992
H           -1.29387920831077        3.19546801959846        2.44236605526487
H           -0.07881058793005       -0.45580211615688        4.37882918630773
H           -0.43236800167195       -0.66592631687699        5.04467931702429

 Bond Distances (Angstroems)
 ---------------------------
Be1-C3=1.5693        Be1-H6=1.5023        C2-C3=1.2482         C3-Be1=1.5693        C3-C2=1.2482         H4-H5=0.8006         
H5-H4=0.8006         H6-Be1=1.5023        H6-H7=0.8249         H7-H6=0.8249         H8-H9=0.7826         H9-H8=0.7826         
 H  H  Rav=0.8027 sigma=0.0173  Rmin=0.7826  Rmax=0.8249     3
 Be H  Rav=1.5023 sigma=0.0000  Rmin=1.5023  Rmax=1.5023     1
 C  Be Rav=1.5693 sigma=0.0000  Rmin=1.5693  Rmax=1.5693     1
 C  C  Rav=1.2482 sigma=0.0000  Rmin=1.2482  Rmax=1.2482     1

 selected bond angles (degree)
 --------------------
H6-Be1-C3=178.80               C2-C3-Be1=178.74               H7-H6-Be1=177.43               

 selected dihedral angles (degree)
 ---------------------------------
C2-C3-Be1-H6=123.20           H7-H6-Be1-C3=200.21           

 CMA Distance (Angstroems)
 ---------------------------
R(CMA):  1.4777
           -------------------------------------------------
          |                Final Singlepoint                |
           -------------------------------------------------

          ...................................................
          :                      SETUP                      :
          :.................................................:
          :  # basis functions                  18          :
          :  # atomic orbitals                  18          :
          :  # shells                           12          :
          :  # electrons                        16          :
          :  max. iterations                   250          :
          :  Hamiltonian                  GFN2-xTB          :
          :  restarted?                      false          :
          :  GBSA solvation                  false          :
          :  PC potential                    false          :
          :  electronic temp.          300.0000000     K    :
          :  accuracy                    1.0000000          :
          :  -> integral cutoff          0.2500000E+02      :
          :  -> integral neglect         0.1000000E-07      :
          :  -> SCF convergence          0.1000000E-05 Eh   :
          :  -> wf. convergence          0.1000000E-03 e    :
          :  Broyden damping             0.4000000          :
          ...................................................

 iter      E             dE          RMSdq      gap      omega  full diag
   1     -7.8895983 -0.788960E+01  0.706E-06    2.22       0.0  T
   2     -7.8895983 -0.888178E-14  0.404E-06    2.22    8253.3  T
   3     -7.8895983  0.288658E-12  0.378E-06    2.22    8812.0  T

   *** convergence criteria satisfied after 3 iterations ***

         #    Occupation            Energy/Eh            Energy/eV
      -------------------------------------------------------------
         1        2.0000           -0.5398224             -14.6893
         2        2.0000           -0.5380206             -14.6403
         3        2.0000           -0.4693440             -12.7715
         4        2.0000           -0.4303309             -11.7099
         5        2.0000           -0.4079151             -11.0999
         6        2.0000           -0.3447016              -9.3798
         7        2.0000           -0.3432859              -9.3413
         8        2.0000           -0.3065812              -8.3425 (HOMO)
         9                         -0.2249414              -6.1210 (LUMO)
        10                         -0.2013167              -5.4781
        11                         -0.2010866              -5.4718
        12                         -0.0522530              -1.4219
        13                         -0.0498918              -1.3576
       ...                                ...                  ...
        18                          0.9667637              26.3070
      -------------------------------------------------------------
                  HL-Gap            0.0816398 Eh            2.2215 eV
             Fermi-level           -0.2657613 Eh           -7.2317 eV

 SCC (total)                   0 d,  0 h,  0 min,  0.001 sec
 SCC setup                      ...        0 min,  0.000 sec (  2.797%)
 Dispersion                     ...        0 min,  0.000 sec (  5.594%)
 classical contributions        ...        0 min,  0.000 sec (  3.097%)
 integral evaluation            ...        0 min,  0.000 sec (  9.624%)
 iterations                     ...        0 min,  0.000 sec ( 35.032%)
 molecular gradient             ...        0 min,  0.000 sec ( 39.993%)
 printout                       ...        0 min,  0.000 sec (  3.064%)

         :::::::::::::::::::::::::::::::::::::::::::::::::::::
         ::                     SUMMARY                     ::
         :::::::::::::::::::::::::::::::::::::::::::::::::::::
         :: total energy              -7.696888126657 Eh    ::
         :: gradient norm              0.000441010391 Eh/a0 ::
         :: HOMO-LUMO gap              2.221532082117 eV    ::
         ::.................................................::
         :: SCC energy                -7.889598325713 Eh    ::
         :: -> isotropic ES           -0.023926503774 Eh    ::
         :: -> anisotropic ES          0.025773934464 Eh    ::
         :: -> anisotropic XC          0.011944704607 Eh    ::
         :: -> dispersion             -0.002390953829 Eh    ::
         :: repulsion energy           0.192708616766 Eh    ::
         :: add. restraining           0.000000000000 Eh    ::
         :: total charge              -0.000000000000 e     ::
         :::::::::::::::::::::::::::::::::::::::::::::::::::::

           -------------------------------------------------
          |                Property Printout                |
           -------------------------------------------------

    * Orbital Energies and Occupations

         #    Occupation            Energy/Eh            Energy/eV
      -------------------------------------------------------------
         1        2.0000           -0.5398224             -14.6893
         2        2.0000           -0.5380206             -14.6403
         3        2.0000           -0.4693440             -12.7715
         4        2.0000           -0.4303309             -11.7099
         5        2.0000           -0.4079151             -11.0999
         6        2.0000           -0.3447016              -9.3798
         7        2.0000           -0.3432859              -9.3413
         8        2.0000           -0.3065812              -8.3425 (HOMO)
         9                         -0.2249414              -6.1210 (LUMO)
        10                         -0.2013167              -5.4781
        11                         -0.2010866              -5.4718
        12                         -0.0522530              -1.4219
        13                         -0.0498918              -1.3576
        14                          0.1187741               3.2320
        15                          0.1923599               5.2344
        16                          0.2294536               6.2438
        17                          0.7169555              19.5094
        18                          0.9667637              26.3070
      -------------------------------------------------------------
                  HL-Gap            0.0816398 Eh            2.2215 eV
             Fermi-level           -0.2657613 Eh           -7.2317 eV

     #   Z          covCN         q      C6AA      α(0)
     1   4 Be       1.621     0.448    15.364     9.277
     2   6 C        0.984    -0.227    43.695    11.104
     3   6 C        1.824    -0.255    38.844    10.070
     4   1 H        0.730     0.035     2.642     2.572
     5   1 H        0.730    -0.057     4.468     3.344
     6   1 H        1.400     0.015     2.789     2.607
     7   1 H        0.626     0.040     2.831     2.724
     8   1 H        0.795     0.004     3.058     2.749
     9   1 H        0.795    -0.003     3.180     2.803

 Mol. C6AA /au·bohr⁶  :        728.672834
 Mol. C8AA /au·bohr⁸  :      16830.700531
 Mol. α(0) /au        :         47.249988


Wiberg/Mayer (AO) data.
largest (>0.10) Wiberg bond orders for each atom

 ---------------------------------------------------------------------------
Note: The following floating-point exceptions are signalling: IEEE_UNDERFLOW_FLAG
normal termination of xtb
     #   Z sym  total        # sym  WBO       # sym  WBO       # sym  WBO
 ---------------------------------------------------------------------------
     1   4 Be   2.082 --     3 C    1.432     2 C    0.433     6 H    0.121
     2   6 C    3.024 --     3 C    2.482     1 Be   0.433
     3   6 C    3.958 --     2 C    2.482     1 Be   1.432
     4   1 H    0.999 --     5 H    0.951
     5   1 H    0.995 --     4 H    0.951
     6   1 H    1.000 --     7 H    0.871     1 Be   0.121
     7   1 H    0.997 --     6 H    0.871
     8   1 H    1.000 --     9 H    0.988
     9   1 H    1.000 --     8 H    0.988
 ---------------------------------------------------------------------------

Topologies differ in total number of bonds
Writing topology from bond orders to xtbtopo.mol

molecular dipole:
                 x           y           z       tot (Debye)
 q only:       -1.675       1.703       0.357
   full:       -2.797       2.936       0.660      10.442
molecular quadrupole (traceless):
                xx          xy          yy          xz          yz          zz
 q only:      -10.981       1.325       7.503      -8.385       9.945       3.478
  q+dip:      -16.164      -2.348      12.987     -14.484      17.759       3.177
   full:      -17.136       0.979      12.036     -13.630      17.059       5.100

           -------------------------------------------------
          |                Geometry Summary                 |
           -------------------------------------------------

      molecular mass/u    :       39.0812994
   center of mass at/Å    :        1.2579003       0.3677215       1.9297682
  moments of inertia/u·Å² :        0.2722868E+02   0.9063965E+02   0.1071957E+03
rotational constants/cm⁻¹ :        0.6191132E+00   0.1859852E+00   0.1572603E+00

 * 4 selected distances

     #   Z          #   Z                                           value/Å
     1   4 Be       3   6 C                                       1.5693170 (max)
     2   6 C        3   6 C                                       1.2482150
     6   1 H        7   1 H                                       0.8249146
     8   1 H        9   1 H                                       0.7826312 (min)

 * 3 distinct bonds (by element types)

   Z      Z             #   av. dist./Å        max./Å        min./Å
   1 H    1 H           2     0.8037729     0.8249146     0.7826312
   4 Be   6 C           1     1.5693170     1.5693170     1.5693170
   6 C    6 C           1     1.2482150     1.2482150     1.2482150


optimized geometry written to: xtbopt.xyz


           -------------------------------------------------
          | TOTAL ENERGY               -7.696888126657 Eh   |
          | GRADIENT NORM               0.000441010391 Eh/α |
          | HOMO-LUMO GAP               2.221532082117 eV   |
           -------------------------------------------------
########################################################################
[WARNING] Runtime exception occurred
-3- restart_readRestart: Dimension missmatch in restart file.
-2- restart_readRestart: Multiplicity missmatch in restart file.
-1- restart_readRestart: Number of electron missmatch in restart file.
########################################################################

------------------------------------------------------------------------
 * finished run on 2025/06/07 at 03:27:53.856     
------------------------------------------------------------------------
 total:
 * wall-time:     0 d,  0 h,  0 min,  0.227 sec
 *  cpu-time:     0 d,  0 h,  0 min,  3.182 sec
 * ratio c/w:    13.999 speedup
 SCF:
 * wall-time:     0 d,  0 h,  0 min,  0.016 sec
 *  cpu-time:     0 d,  0 h,  0 min,  0.222 sec
 * ratio c/w:    13.487 speedup
 ANC optimizer:
 * wall-time:     0 d,  0 h,  0 min,  0.208 sec
 *  cpu-time:     0 d,  0 h,  0 min,  2.926 sec
 * ratio c/w:    14.070 speedup

