      -----------------------------------------------------------      
     |                   =====================                   |     
     |                           x T B                           |     
     |                   =====================                   |     
     |                         S. Grimme                         |     
     |          Mulliken Center for Theoretical Chemistry        |     
     |                    University of Bonn                     |     
      -----------------------------------------------------------      

   * xtb version 6.5.1 (conda-forge) compiled by 'runner@Mac-1657629245115.local' on 2022-07-12

   xtb is free software: you can redistribute it and/or modify it under
   the terms of the GNU Lesser General Public License as published by
   the Free Software Foundation, either version 3 of the License, or
   (at your option) any later version.
   
   xtb is distributed in the hope that it will be useful,
   but WITHOUT ANY WARRANTY; without even the implied warranty of
   MERCHANTABILITY or FITNESS FOR A PARTICULAR PURPOSE.  See the
   GNU Lesser General Public License for more details.
   
   Cite this work as:
   * C. Bannwarth, E. Caldeweyher, S. Ehlert, A. Hansen, P. Pracht,
     J. Seibert, S. Spicher, S. Grimme, WIREs Comput. Mol. Sci., 2020, 11,
     e01493. DOI: 10.1002/wcms.1493
   
   for GFN2-xTB:
   * C. Bannwarth, S. Ehlert and S. Grimme., J. Chem. Theory Comput., 2019,
     15, 1652-1671. DOI: 10.1021/acs.jctc.8b01176
   for GFN1-xTB:
   * S. Grimme, C. Bannwarth, P. Shushkov, J. Chem. Theory Comput., 2017,
     13, 1989-2009. DOI: 10.1021/acs.jctc.7b00118
   for GFN0-xTB:
   * P. Pracht, E. Caldeweyher, S. Ehlert, S. Grimme, ChemRxiv, 2019, preprint.
     DOI: 10.26434/chemrxiv.8326202.v1
   for GFN-FF:
   * S. Spicher and S. Grimme, Angew. Chem. Int. Ed., 2020, 59, 15665-15673.
     DOI: 10.1002/anie.202004239
   
   for ALPB and GBSA implicit solvation:
   * S. Ehlert, M. Stahn, S. Spicher, S. Grimme, J. Chem. Theory Comput.,
     2021, 17, 4250-4261. DOI: 10.1021/acs.jctc.1c00471
   
   for DFT-D4:
   * E. Caldeweyher, C. Bannwarth and S. Grimme, J. Chem. Phys., 2017,
     147, 034112. DOI: 10.1063/1.4993215
   * E. Caldeweyher, S. Ehlert, A. Hansen, H. Neugebauer, S. Spicher,
     C. Bannwarth and S. Grimme, J. Chem. Phys., 2019, 150, 154122.
     DOI: 10.1063/1.5090222
   * E. Caldeweyher, J.-M. Mewes, S. Ehlert and S. Grimme, Phys. Chem. Chem. Phys.
     2020, 22, 8499-8512. DOI: 10.1039/D0CP00502A
   
   for sTDA-xTB:
   * S. Grimme and C. Bannwarth, J. Chem. Phys., 2016, 145, 054103.
     DOI: 10.1063/1.4959605
   
   in the mass-spec context:
   * V. Asgeirsson, C. Bauer and S. Grimme, Chem. Sci., 2017, 8, 4879.
     DOI: 10.1039/c7sc00601b
   * J. Koopman and S. Grimme, ACS Omega 2019, 4, 12, 15120-15133.
     DOI: 10.1021/acsomega.9b02011
   
   for metadynamics refer to:
   * S. Grimme, J. Chem. Theory Comput., 2019, 155, 2847-2862
     DOI: 10.1021/acs.jctc.9b00143
   
   for SPH calculations refer to:
   * S. Spicher and S. Grimme, J. Chem. Theory Comput., 2021, 17, 1701-1714
     DOI: 10.1021/acs.jctc.0c01306
   
   with help from (in alphabetical order)
   P. Atkinson, C. Bannwarth, F. Bohle, G. Brandenburg, E. Caldeweyher
   M. Checinski, S. Dohm, S. Ehlert, S. Ehrlich, I. Gerasimov, C. Hölzer
   A. Katbashev, J. Koopman, C. Lavigne, S. Lehtola, F. März, M. Müller,
   F. Musil, H. Neugebauer, J. Pisarek, C. Plett, P. Pracht, F. Pultar,
   J. Seibert, P. Shushkov, S. Spicher, M. Stahn, M. Steiner, T. Strunk,
   J. Stückrath, T. Rose, and J. Unsleber
   
 * started run on 2025/06/07 at 03:27:54.454     

           -------------------------------------------------
          |                Calculation Setup                |
           -------------------------------------------------

          program call               : xtb BeC3H5.xyz --gfn 2 --opt
          coordinate file            : BeC3H5.xyz
          omp threads                :                    16

   ID    Z sym.   atoms
    1    4 Be     1
    2    6 C      2-4
    3    1 H      5-9

molecular fragmentation (1/2 indicates fragments):
122222222
# atoms in fragment 1/2:     1     8
 fragment masses (1/2) :        9.01       41.07
CMA distance (Bohr)    :   4.804
constraining FC (au)   :  0.0500

           -------------------------------------------------
          |                 G F N 2 - x T B                 |
           -------------------------------------------------

        Reference                      10.1021/acs.jctc.8b01176
      * Hamiltonian:
        H0-scaling (s, p, d)           1.850000    2.230000    2.230000
        zeta-weighting                 0.500000
      * Dispersion:
        s8                             2.700000
        a1                             0.520000
        a2                             5.000000
        s9                             5.000000
      * Repulsion:
        kExp                           1.500000    1.000000
        rExp                           1.000000
      * Coulomb:
        alpha                          2.000000
        third order                    shell-resolved
        anisotropic                    true
        a3                             3.000000
        a5                             4.000000
        cn-shift                       1.200000
        cn-exp                         4.000000
        max-rad                        5.000000


          ...................................................
          :                      SETUP                      :
          :.................................................:
          :  # basis functions                  21          :
          :  # atomic orbitals                  21          :
          :  # shells                           13          :
          :  # electrons                        19          :
          :  max. iterations                   250          :
          :  Hamiltonian                  GFN2-xTB          :
          :  restarted?                      false          :
          :  GBSA solvation                  false          :
          :  PC potential                    false          :
          :  electronic temp.          300.0000000     K    :
          :  accuracy                    1.0000000          :
          :  -> integral cutoff          0.2500000E+02      :
          :  -> integral neglect         0.1000000E-07      :
          :  -> SCF convergence          0.1000000E-05 Eh   :
          :  -> wf. convergence          0.1000000E-03 e    :
          :  Broyden damping             0.4000000          :
          ...................................................

 iter      E             dE          RMSdq      gap      omega  full diag
   1     12.3875918  0.123876E+02  0.252E+01    0.33       0.0  T
   2     -6.1318116 -0.185194E+02  0.145E+01    0.19       1.0  T
   3     -6.9131518 -0.781340E+00  0.107E+01    1.06       1.0  T
   4     -6.3495781  0.563574E+00  0.105E+01    1.94       1.0  T
   5     -7.1513618 -0.801784E+00  0.815E+00    1.16       1.0  T
   6      7.6480549  0.147994E+02  0.191E+01    0.19       1.0  T
   7     -7.9150480 -0.155631E+02  0.679E+00    0.93       1.0  T
   8     -7.5010743  0.413974E+00  0.637E+00    1.21       1.0  T
   9     -7.3552569  0.145817E+00  0.651E+00    0.92       1.0  T
  10     -7.8883437 -0.533087E+00  0.589E+00    0.93       1.0  T
  11     -7.7029616  0.185382E+00  0.555E+00    0.92       1.0  T
  12     -8.1110273 -0.408066E+00  0.555E+00    0.82       1.0  T
  13     -8.3187915 -0.207764E+00  0.551E+00    0.76       1.0  T
  14     -8.3454748 -0.266833E-01  0.551E+00    0.75       1.0  T
  15     -8.4222116 -0.767367E-01  0.536E+00    0.72       1.0  T
  16     -8.4167938  0.541775E-02  0.527E+00    0.71       1.0  T
  17     -8.4207776 -0.398380E-02  0.518E+00    0.71       1.0  T
  18     -8.3324278  0.883498E-01  0.440E+00    0.72       1.0  T
  19     -8.3396182 -0.719041E-02  0.430E+00    0.72       1.0  T
  20     -8.3334814  0.613679E-02  0.432E+00    0.72       1.0  T
  21     -8.4656170 -0.132136E+00  0.366E+00    0.67       1.0  T
  22     -8.5234327 -0.578157E-01  0.338E+00    0.65       1.0  T
  23     -8.5783690 -0.549363E-01  0.312E+00    0.63       1.0  T
  24     -8.7571728 -0.178804E+00  0.195E+00    0.49       1.0  T
  25     -8.8103930 -0.532202E-01  0.145E+00    0.39       1.0  T
  26     -8.8185904 -0.819733E-02  0.119E+00    0.38       1.0  T
  27     -8.8183188  0.271579E-03  0.119E+00    0.38       1.0  T
  28     -8.8253006 -0.698176E-02  0.983E-01    0.36       1.0  T
  29     -8.8160216  0.927899E-02  0.112E+00    0.33       1.0  T
  30     -8.8047505  0.112710E-01  0.138E+00    0.31       1.0  T
  31     -8.8077237 -0.297318E-02  0.130E+00    0.32       1.0  T
  32     -8.8112136 -0.348985E-02  0.121E+00    0.33       1.0  T
  33     -8.8116921 -0.478565E-03  0.119E+00    0.33       1.0  T
  34     -8.8060350  0.565713E-02  0.136E+00    0.33       1.0  T
  35     -8.8076020 -0.156703E-02  0.132E+00    0.33       1.0  T
  36     -8.7926550  0.149471E-01  0.165E+00    0.31       1.0  T
  37     -8.7917296  0.925333E-03  0.167E+00    0.31       1.0  T
  38     -8.7904767  0.125289E-02  0.169E+00    0.31       1.0  T
  39     -8.7909840 -0.507281E-03  0.168E+00    0.31       1.0  T
  40     -8.7917252 -0.741143E-03  0.166E+00    0.31       1.0  T
  41     -8.8128448 -0.211197E-01  0.112E+00    0.35       1.0  T
  42     -8.8132396 -0.394790E-03  0.110E+00    0.34       1.0  T
  43     -8.8222453 -0.900566E-02  0.761E-01    0.37       1.0  T
  44     -8.8257006 -0.345532E-02  0.584E-01    0.39       1.0  T
  45     -8.8258032 -0.102626E-03  0.583E-01    0.39       1.0  T
  46     -8.8252849  0.518300E-03  0.546E-01    0.40       1.0  T
  47     -8.8198072  0.547773E-02  0.723E-01    0.38       1.0  T
  48     -8.8202437 -0.436459E-03  0.657E-01    0.39       1.0  T
  49     -8.8197668  0.476911E-03  0.647E-01    0.38       1.0  T
  50     -8.8263127 -0.654591E-02  0.153E-01    0.43       1.0  T
  51     -8.8265549 -0.242283E-03  0.608E-02    0.44       1.0  T
  52     -8.8264623  0.926239E-04  0.845E-02    0.44       1.0  T
  53     -8.8265781 -0.115765E-03  0.402E-02    0.45       1.0  T
  54     -8.8266221 -0.439734E-04  0.351E-02    0.45       1.0  T
  55     -8.8266215  0.528477E-06  0.249E-02    0.45       1.3  T
  56     -8.8266235 -0.201270E-05  0.139E-02    0.45       2.4  T
  57     -8.8266242 -0.693621E-06  0.142E-02    0.45       2.3  T
  58     -8.8266245 -0.217006E-06  0.114E-02    0.45       2.9  T
  59     -8.8266236  0.894217E-06  0.120E-02    0.45       2.8  T
  60     -8.8266232  0.381785E-06  0.993E-03    0.45       3.4  T
  61     -8.8266244 -0.121600E-05  0.627E-03    0.45       5.3  T
  62     -8.8266244  0.308323E-07  0.580E-03    0.45       5.7  T
  63     -8.8266247 -0.306178E-06  0.236E-03    0.45      14.1  T
  64     -8.8266247  0.400339E-08  0.199E-03    0.45      16.8  T
  65     -8.8266247 -0.769337E-08  0.113E-03    0.45      29.4  T
  66     -8.8266247 -0.121329E-07  0.126E-04    0.45     264.9  T
  67     -8.8266247 -0.190393E-09  0.116E-04    0.45     286.4  T

   *** convergence criteria satisfied after 67 iterations ***

         #    Occupation            Energy/Eh            Energy/eV
      -------------------------------------------------------------
         1        2.0000           -0.6121144             -16.6565
       ...           ...                  ...                  ...
         4        2.0000           -0.5060857             -13.7713
         5        2.0000           -0.4381589             -11.9229
         6        2.0000           -0.3683178             -10.0224
         7        2.0000           -0.3592106              -9.7746
         8        2.0000           -0.3559742              -9.6866
         9        1.9731           -0.3244360              -8.8284
        10        1.0268           -0.3176206              -8.6429 (HOMO)
        11        0.0002           -0.3011755              -8.1954 (LUMO)
        12                         -0.2916255              -7.9355
        13                         -0.2495766              -6.7913
        14                         -0.2327884              -6.3345
        15                         -0.2131943              -5.8013
       ...                                ...                  ...
        21                          0.6174088              16.8005
      -------------------------------------------------------------
                  HL-Gap            0.0164451 Eh            0.4475 eV
             Fermi-level           -0.3152130 Eh           -8.5774 eV

 SCC (total)                   0 d,  0 h,  0 min,  0.012 sec
 SCC setup                      ...        0 min,  0.000 sec (  0.456%)
 Dispersion                     ...        0 min,  0.000 sec (  1.566%)
 classical contributions        ...        0 min,  0.000 sec (  0.430%)
 integral evaluation            ...        0 min,  0.000 sec (  1.060%)
 iterations                     ...        0 min,  0.011 sec ( 91.562%)
 molecular gradient             ...        0 min,  0.001 sec (  4.512%)
 printout                       ...        0 min,  0.000 sec (  0.306%)

         :::::::::::::::::::::::::::::::::::::::::::::::::::::
         ::                     SUMMARY                     ::
         :::::::::::::::::::::::::::::::::::::::::::::::::::::
         :: total energy              -8.757240279909 Eh    ::
         :: gradient norm              0.272661943794 Eh/a0 ::
         :: HOMO-LUMO gap              0.447493890565 eV    ::
         ::.................................................::
         :: SCC energy                -8.826624690153 Eh    ::
         :: -> isotropic ES           -0.072765299244 Eh    ::
         :: -> anisotropic ES          0.009929223739 Eh    ::
         :: -> anisotropic XC         -0.002540873844 Eh    ::
         :: -> dispersion             -0.006544916877 Eh    ::
         :: repulsion energy           0.069382350930 Eh    ::
         :: add. restraining           0.000000000000 Eh    ::
         :: total charge              -0.000000000840 e     ::
         :::::::::::::::::::::::::::::::::::::::::::::::::::::

      ----------------------------------------------------------- 
     |                   =====================                   |
     |                        A N C O P T                        |
     |                   =====================                   |
     |               Approximate Normal Coordinate               |
     |                Rational Function Optimizer                |
      ----------------------------------------------------------- 

          ...................................................
          :                      SETUP                      :
          :.................................................:
          :   optimization level            normal          :
          :   max. optcycles                   200          :
          :   ANC micro-cycles                  20          :
          :   degrees of freedom                21          :
          :.................................................:
          :   RF solver                   davidson          :
          :   write xtbopt.log                true          :
          :   linear?                        false          :
          :   energy convergence         0.5000000E-05 Eh   :
          :   grad. convergence          0.1000000E-02 Eh/α :
          :   maximium RF displ.         1.0000000          :
          :   Hlow (freq-cutoff)         0.1000000E-01      :
          :   Hmax (freq-cutoff)         5.0000000          :
          :   S6 in model hess.         20.0000000          :
          ...................................................

generating ANC from model Hessian ...
Using Lindh-Hessian (1995)
 Shifting diagonal of input Hessian by    2.2175831743836871E-002
 Lowest  eigenvalues of input Hessian
    0.010000    0.019573    0.019894    0.021047    0.000000    0.000000
    0.000000    0.000000    0.000000    0.000000    0.022269    0.022633
    0.024208    0.029515    0.033772    0.039506    0.047591    0.052937
 Highest eigenvalues
    0.220374    0.241721    0.272807    0.305231    0.357335    0.387554


........................................................................
.............................. CYCLE    1 ..............................
........................................................................
   1     -8.8266247 -0.882662E+01  0.727E-05    0.45       0.0  T
   2     -8.8266247  0.455834E-08  0.402E-04    0.45      83.0  T
   3     -8.8266247 -0.434900E-08  0.106E-04    0.45     313.9  T
     SCC iter.                  ...        0 min,  0.001 sec
     gradient                   ...        0 min,  0.001 sec
 * total energy  :    -8.7572403 Eh     change        0.1406590E-09 Eh
   gradient norm :     0.2724005 Eh/α   predicted     0.0000000E+00 (-100.00%)
   displ. norm   :     0.7744804 α      lambda       -0.1992527E+00
   maximum displ.:     0.3262471 α      in ANC's #13, #15, #1, ...

........................................................................
.............................. CYCLE    2 ..............................
........................................................................
   1     -8.9455246 -0.894552E+01  0.236E+00    0.80       0.0  T
   2     -4.3676365  0.457789E+01  0.119E+01    0.14       1.0  T
   3     -8.9412228 -0.457359E+01  0.177E+00    0.38       1.0  T
   4     -8.8682681  0.729547E-01  0.243E+00    0.88       1.0  T
   5     -8.8734785 -0.521043E-02  0.227E+00    0.80       1.0  T
   6     -8.9754398 -0.101961E+00  0.616E-01    0.57       1.0  T
   7     -8.9488717  0.265680E-01  0.113E+00    0.65       1.0  T
   8     -8.9653318 -0.164600E-01  0.713E-01    0.65       1.0  T
   9     -8.9710088 -0.567708E-02  0.439E-01    0.61       1.0  T
  10     -8.9754718 -0.446291E-02  0.365E-01    0.57       1.0  T
  11     -8.9756892 -0.217420E-03  0.354E-01    0.57       1.0  T
  12     -8.9762434 -0.554181E-03  0.276E-01    0.56       1.0  T
  13     -8.9764864 -0.243000E-03  0.253E-01    0.55       1.0  T
  14     -8.9767762 -0.289891E-03  0.222E-01    0.55       1.0  T
  15     -8.9768297 -0.534828E-04  0.205E-01    0.55       1.0  T
  16     -8.9769780 -0.148250E-03  0.182E-01    0.55       1.0  T
  17     -8.9772340 -0.256040E-03  0.135E-01    0.55       1.0  T
  18     -8.9773436 -0.109579E-03  0.110E-01    0.55       1.0  T
  19     -8.9775392 -0.195610E-03  0.346E-02    0.54       1.0  T
  20     -8.9775563 -0.170963E-04  0.980E-03    0.54       3.4  T
  21     -8.9775568 -0.502230E-06  0.261E-03    0.54      12.8  T
  22     -8.9775568 -0.408178E-07  0.341E-03    0.54       9.8  T
  23     -8.9775570 -0.166563E-06  0.424E-04    0.54      78.5  T
  24     -8.9775570  0.653845E-09  0.365E-04    0.54      91.3  T
     SCC iter.                  ...        0 min,  0.005 sec
     gradient                   ...        0 min,  0.001 sec
 * total energy  :    -8.9255252 Eh     change       -0.1682849E+00 Eh
   gradient norm :     0.2519188 Eh/α   predicted    -0.1593842E+00 (  -5.29%)
   displ. norm   :     0.9395662 α      lambda       -0.2310665E+00
   maximum displ.:     0.5007957 α      in ANC's #18, #13, #21, ...

........................................................................
.............................. CYCLE    3 ..............................
........................................................................
   1     -9.2343669 -0.923437E+01  0.478E+00    0.37       0.0  T
   2     -8.9978619  0.236505E+00  0.347E+00    1.01       1.0  T
   3      0.2978104  0.929567E+01  0.166E+01    0.87       1.0  T
   4     -7.8857354 -0.818355E+01  0.917E+00    0.96       1.0  T
   5     -8.9666131 -0.108088E+01  0.493E+00    0.72       1.0  T
   6     -9.2004441 -0.233831E+00  0.272E+00    0.47       1.0  T
   7     -9.2493425 -0.488984E-01  0.157E+00    0.41       1.0  T
   8     -9.2469886  0.235387E-02  0.149E+00    0.43       1.0  T
   9     -9.2559242 -0.893557E-02  0.796E-01    0.43       1.0  T
  10     -9.2578222 -0.189802E-02  0.419E-01    0.43       1.0  T
  11     -9.2564232  0.139895E-02  0.337E-01    0.43       1.0  T
  12     -9.2576851 -0.126191E-02  0.394E-01    0.44       1.0  T
  13     -9.2576531  0.320454E-04  0.356E-01    0.46       1.0  T
  14     -9.2578877 -0.234584E-03  0.366E-01    0.46       1.0  T
  15     -9.2579445 -0.568092E-04  0.314E-01    0.46       1.0  T
  16     -9.2579836 -0.391298E-04  0.266E-01    0.46       1.0  T
  17     -9.2580078 -0.241768E-04  0.241E-01    0.46       1.0  T
  18     -9.2580115 -0.369401E-05  0.221E-01    0.45       1.0  T
  19     -9.2580132 -0.168008E-05  0.179E-01    0.45       1.0  T
  20     -9.2580149 -0.171850E-05  0.132E-01    0.45       1.0  T
  21     -9.2580165 -0.163764E-05  0.606E-02    0.45       1.0  T
  22     -9.2580166 -0.120163E-06  0.216E-02    0.45       1.5  T
  23     -9.2580169 -0.250394E-06  0.293E-03    0.45      11.4  T
  24     -9.2580171 -0.193080E-06  0.336E-03    0.45       9.9  T
  25     -9.2580171 -0.309548E-07  0.139E-04    0.45     239.3  T
  26     -9.2580171 -0.268370E-09  0.388E-04    0.45      86.0  T
     SCC iter.                  ...        0 min,  0.007 sec
     gradient                   ...        0 min,  0.000 sec
 * total energy  :    -9.0936890 Eh     change       -0.1681638E+00 Eh
   gradient norm :     0.2050711 Eh/α   predicted    -0.2175242E+00 (  29.35%)
   displ. norm   :     0.7301393 α      lambda       -0.1188992E+00
   maximum displ.:     0.3067013 α      in ANC's #13, #21, #2, ...

........................................................................
.............................. CYCLE    4 ..............................
........................................................................
   1     -9.2975947 -0.929759E+01  0.416E+00    0.82       0.0  T
   2     -8.4151408  0.882454E+00  0.647E+00    0.68       1.0  T
   3     -8.8431598 -0.428019E+00  0.438E+00    1.95       1.0  T
   4     -9.2728562 -0.429696E+00  0.297E+00    0.89       1.0  T
   5     -9.2903677 -0.175115E-01  0.179E+00    0.96       1.0  T
   6     -9.2985220 -0.815430E-02  0.171E+00    0.92       1.0  T
   7     -9.3066515 -0.812948E-02  0.135E+00    0.91       1.0  T
   8     -9.3223264 -0.156749E-01  0.895E-01    0.86       1.0  T
   9     -9.3274642 -0.513773E-02  0.576E-01    0.84       1.0  T
  10     -9.3297111 -0.224695E-02  0.369E-01    0.83       1.0  T
  11     -9.3311036 -0.139251E-02  0.173E-01    0.82       1.0  T
  12     -9.3314259 -0.322294E-03  0.344E-02    0.81       1.0  T
  13     -9.3314352 -0.933106E-05  0.755E-03    0.81       4.4  T
  14     -9.3314354 -0.139484E-06  0.487E-03    0.81       6.8  T
  15     -9.3314356 -0.239753E-06  0.237E-03    0.81      14.0  T
  16     -9.3314357 -0.113498E-06  0.431E-04    0.81      77.4  T
  17     -9.3314357  0.190026E-08  0.677E-04    0.81      49.3  T
     SCC iter.                  ...        0 min,  0.004 sec
     gradient                   ...        0 min,  0.000 sec
 * total energy  :    -9.1561034 Eh     change       -0.6241437E-01 Eh
   gradient norm :     0.1451530 Eh/α   predicted    -0.9114237E-01 (  46.03%)
   displ. norm   :     0.7002142 α      lambda       -0.7760490E-01
   maximum displ.:     0.3153777 α      in ANC's #21, #2, #5, ...

........................................................................
.............................. CYCLE    5 ..............................
........................................................................
   1     -9.3416749 -0.934167E+01  0.345E+00    0.72       0.0  T
   2     -9.0934425  0.248232E+00  0.340E+00    1.29       1.0  T
   3     -7.9147343  0.117871E+01  0.834E+00    0.99       1.0  T
   4     -9.2181278 -0.130339E+01  0.347E+00    0.75       1.0  T
   5     -9.0984793  0.119649E+00  0.392E+00    0.84       1.0  T
   6     -9.2277273 -0.129248E+00  0.266E+00    0.77       1.0  T
   7     -9.3578797 -0.130152E+00  0.771E-01    0.67       1.0  T
   8     -9.3580356 -0.155865E-03  0.100E+00    0.72       1.0  T
   9     -9.3550936  0.294196E-02  0.102E+00    0.72       1.0  T
  10     -9.3627368 -0.764315E-02  0.735E-01    0.71       1.0  T
  11     -9.3638703 -0.113351E-02  0.861E-01    0.72       1.0  T
  12     -9.3642679 -0.397586E-03  0.596E-01    0.72       1.0  T
  13     -9.3642235  0.443929E-04  0.450E-01    0.73       1.0  T
  14     -9.3649368 -0.713321E-03  0.226E-01    0.73       1.0  T
  15     -9.3650606 -0.123801E-03  0.172E-01    0.73       1.0  T
  16     -9.3652284 -0.167788E-03  0.726E-02    0.73       1.0  T
  17     -9.3652559 -0.275374E-04  0.287E-02    0.73       1.2  T
  18     -9.3652607 -0.479598E-05  0.762E-03    0.73       4.4  T
  19     -9.3652610 -0.298575E-06  0.185E-03    0.73      18.0  T
  20     -9.3652610 -0.170071E-07  0.602E-04    0.73      55.4  T
  21     -9.3652610 -0.195744E-08  0.102E-04    0.73     325.2  T
     SCC iter.                  ...        0 min,  0.004 sec
     gradient                   ...        0 min,  0.001 sec
 * total energy  :    -9.2069498 Eh     change       -0.5084642E-01 Eh
   gradient norm :     0.1161748 Eh/α   predicted    -0.5782730E-01 (  13.73%)
   displ. norm   :     0.7790054 α      lambda       -0.6638865E-01
   maximum displ.:     0.4148477 α      in ANC's #2, #5, #21, ...

........................................................................
.............................. CYCLE    6 ..............................
........................................................................
   1     -9.4551272 -0.945513E+01  0.318E+00    1.01       0.0  T
   2     -9.3105079  0.144619E+00  0.419E+00    1.07       1.0  T
   3     -9.4428390 -0.132331E+00  0.203E+00    1.11       1.0  T
   4     -9.0926257  0.350213E+00  0.427E+00    1.15       1.0  T
   5     -9.4661717 -0.373546E+00  0.579E-01    1.00       1.0  T
   6     -9.4658998  0.271888E-03  0.459E-01    0.99       1.0  T
   7     -9.4657214  0.178426E-03  0.410E-01    1.00       1.0  T
   8     -9.4668056 -0.108426E-02  0.439E-02    1.00       1.0  T
   9     -9.4666659  0.139764E-03  0.914E-02    1.00       1.0  T
  10     -9.4668114 -0.145533E-03  0.128E-02    1.00       2.6  T
  11     -9.4668114  0.773244E-08  0.635E-03    1.00       5.2  T
  12     -9.4668116 -0.166465E-06  0.110E-03    1.00      30.2  T
  13     -9.4668116 -0.159213E-07  0.652E-04    1.00      51.1  T
  14     -9.4668116 -0.328521E-09  0.204E-04    1.00     163.4  T
     SCC iter.                  ...        0 min,  0.003 sec
     gradient                   ...        0 min,  0.001 sec
 * total energy  :    -9.2508415 Eh     change       -0.4389171E-01 Eh
   gradient norm :     0.0841786 Eh/α   predicted    -0.5333828E-01 (  21.52%)
   displ. norm   :     0.7298816 α      lambda       -0.3743029E-01
   maximum displ.:     0.4947703 α      in ANC's #5, #10, #2, ...

........................................................................
.............................. CYCLE    7 ..............................
........................................................................
   1     -9.4283898 -0.942839E+01  0.155E+00    1.15       0.0  T
   2     -9.3955903  0.327995E-01  0.186E+00    1.20       1.0  T
   3     -9.4112760 -0.156858E-01  0.123E+00    1.20       1.0  T
   4     -9.3753914  0.358847E-01  0.175E+00    1.09       1.0  T
   5     -9.4312296 -0.558382E-01  0.345E-01    1.13       1.0  T
   6     -9.4317717 -0.542096E-03  0.246E-01    1.15       1.0  T
   7     -9.4319814 -0.209674E-03  0.154E-01    1.14       1.0  T
   8     -9.4320487 -0.673055E-04  0.651E-02    1.15       1.0  T
   9     -9.4320941 -0.454517E-04  0.272E-02    1.15       1.2  T
  10     -9.4321048 -0.106834E-04  0.771E-03    1.15       4.3  T
  11     -9.4321056 -0.755875E-06  0.187E-03    1.15      17.8  T
  12     -9.4321056 -0.370577E-07  0.644E-04    1.15      51.7  T
  13     -9.4321056 -0.134538E-08  0.423E-04    1.15      78.9  T
     SCC iter.                  ...        0 min,  0.002 sec
     gradient                   ...        0 min,  0.001 sec
 * total energy  :    -9.2571763 Eh     change       -0.6334799E-02 Eh
   gradient norm :     0.1004317 Eh/α   predicted    -0.2868523E-01 ( 352.82%)
   displ. norm   :     0.5268605 α      lambda       -0.3258886E-01
   maximum displ.:     0.2966018 α      in ANC's #4, #3, #12, ...

........................................................................
.............................. CYCLE    8 ..............................
........................................................................
   1     -9.4278508 -0.942785E+01  0.203E+00    1.12       0.0  T
   2     -9.1992760  0.228575E+00  0.370E+00    0.85       1.0  T
   3     -9.4111507 -0.211875E+00  0.176E+00    1.25       1.0  T
   4     -9.4087277  0.242291E-02  0.142E+00    0.71       1.0  T
   5     -9.4437610 -0.350332E-01  0.369E-01    0.98       1.0  T
   6     -9.4443163 -0.555289E-03  0.241E-01    0.97       1.0  T
   7     -9.4444020 -0.856963E-04  0.186E-01    0.98       1.0  T
   8     -9.4445024 -0.100399E-03  0.325E-02    0.99       1.0  T
   9     -9.4444835  0.188192E-04  0.374E-02    0.98       1.0  T
  10     -9.4445030 -0.195013E-04  0.709E-03    0.99       4.7  T
  11     -9.4445037 -0.639952E-06  0.329E-03    0.99      10.1  T
  12     -9.4445037 -0.336975E-07  0.895E-04    0.99      37.2  T
  13     -9.4445037  0.578023E-09  0.348E-04    0.99      95.7  T
     SCC iter.                  ...        0 min,  0.003 sec
     gradient                   ...        0 min,  0.000 sec
 * total energy  :    -9.2601094 Eh     change       -0.2933141E-02 Eh
   gradient norm :     0.1249550 Eh/α   predicted    -0.2081746E-01 ( 609.73%)
   displ. norm   :     0.4428640 α      lambda       -0.3164363E-01
   maximum displ.:     0.2029357 α      in ANC's #10, #5, #2, ...

........................................................................
.............................. CYCLE    9 ..............................
........................................................................
   1     -9.4726733 -0.947267E+01  0.130E+00    1.18       0.0  T
   2     -9.3846088  0.880645E-01  0.231E+00    0.83       1.0  T
   3     -9.4623172 -0.777084E-01  0.117E+00    1.30       1.0  T
   4     -9.4749174 -0.126002E-01  0.637E-01    1.06       1.0  T
   5     -9.4773524 -0.243501E-02  0.360E-01    1.16       1.0  T
   6     -9.4780197 -0.667276E-03  0.284E-01    1.15       1.0  T
   7     -9.4782474 -0.227678E-03  0.214E-01    1.13       1.0  T
   8     -9.4787224 -0.474965E-03  0.341E-02    1.12       1.0  T
   9     -9.4787274 -0.508462E-05  0.145E-02    1.12       2.3  T
  10     -9.4787290 -0.154463E-05  0.315E-03    1.12      10.6  T
  11     -9.4787290 -0.333156E-08  0.165E-03    1.12      20.2  T
  12     -9.4787290 -0.274266E-07  0.564E-04    1.12      59.1  T
  13     -9.4787290 -0.284693E-08  0.266E-04    1.12     125.2  T
     SCC iter.                  ...        0 min,  0.003 sec
     gradient                   ...        0 min,  0.001 sec
 * total energy  :    -9.2627646 Eh     change       -0.2655205E-02 Eh
   gradient norm :     0.1091197 Eh/α   predicted    -0.1892492E-01 ( 612.75%)
   displ. norm   :     0.3732985 α      lambda       -0.2494523E-01
   maximum displ.:     0.2035556 α      in ANC's #11, #4, #6, ...

........................................................................
.............................. CYCLE   10 ..............................
........................................................................
   1     -9.4796766 -0.947968E+01  0.173E+00    0.69       0.0  T
   2     -9.3032030  0.176474E+00  0.291E+00    1.34       1.0  T
   3     -9.4250655 -0.121863E+00  0.210E+00    0.51       1.0  T
   4     -9.4855441 -0.604786E-01  0.914E-01    0.85       1.0  T
   5     -9.4924539 -0.690986E-02  0.364E-01    0.76       1.0  T
   6     -9.4922379  0.215990E-03  0.343E-01    0.78       1.0  T
   7     -9.4922554 -0.174826E-04  0.341E-01    0.77       1.0  T
   8     -9.4926075 -0.352125E-03  0.759E-02    0.75       1.0  T
   9     -9.4925960  0.115540E-04  0.623E-02    0.74       1.0  T
  10     -9.4926349 -0.388814E-04  0.994E-03    0.74       3.4  T
  11     -9.4926359 -0.104322E-05  0.561E-03    0.74       5.9  T
  12     -9.4926359 -0.340478E-07  0.144E-03    0.74      23.2  T
  13     -9.4926359 -0.228981E-08  0.624E-04    0.74      53.4  T
  14     -9.4926359 -0.845590E-09  0.109E-04    0.74     305.6  T
     SCC iter.                  ...        0 min,  0.003 sec
     gradient                   ...        0 min,  0.000 sec
 * total energy  :    -9.2699256 Eh     change       -0.7160963E-02 Eh
   gradient norm :     0.0856324 Eh/α   predicted    -0.1421069E-01 (  98.45%)
   displ. norm   :     0.4304633 α      lambda       -0.2159851E-01
   maximum displ.:     0.2035782 α      in ANC's #10, #4, #2, ...

........................................................................
.............................. CYCLE   11 ..............................
........................................................................
   1     -9.4183495 -0.941835E+01  0.164E+00    0.63       0.0  T
   2     -9.1666959  0.251654E+00  0.331E+00    1.22       1.0  T
   3     -9.3687831 -0.202087E+00  0.199E+00    0.58       1.0  T
   4     -9.4254002 -0.566171E-01  0.828E-01    0.78       1.0  T
   5     -9.4316823 -0.628212E-02  0.358E-01    0.63       1.0  T
   6     -9.4324565 -0.774179E-03  0.280E-01    0.67       1.0  T
   7     -9.4322224  0.234093E-03  0.282E-01    0.67       1.0  T
   8     -9.4324574 -0.235020E-03  0.953E-02    0.66       1.0  T
   9     -9.4324424  0.150623E-04  0.898E-02    0.66       1.0  T
  10     -9.4325510 -0.108669E-03  0.106E-02    0.66       3.1  T
  11     -9.4325523 -0.129782E-05  0.971E-03    0.66       3.4  T
  12     -9.4325526 -0.332766E-06  0.120E-03    0.66      27.9  T
  13     -9.4325526 -0.380401E-09  0.557E-04    0.66      59.9  T
  14     -9.4325527 -0.168123E-08  0.170E-04    0.66     196.5  T
     SCC iter.                  ...        0 min,  0.004 sec
     gradient                   ...        0 min,  0.001 sec
 * total energy  :    -9.2694435 Eh     change        0.4821417E-03 Eh
   gradient norm :     0.0787081 Eh/α   predicted    -0.1280034E-01 (*******%)
   displ. norm   :     0.2400503 α      lambda       -0.1282547E-01
   maximum displ.:     0.1073738 α      in ANC's #21, #3, #12, ...

........................................................................
.............................. CYCLE   12 ..............................
........................................................................
   1     -9.4660088 -0.946601E+01  0.120E+00    0.93       0.0  T
   2     -9.3419638  0.124045E+00  0.254E+00    0.73       1.0  T
   3     -9.4609115 -0.118948E+00  0.107E+00    1.05       1.0  T
   4     -9.4721135 -0.112020E-01  0.562E-01    0.84       1.0  T
   5     -9.4741852 -0.207162E-02  0.260E-01    0.91       1.0  T
   6     -9.4750889 -0.903743E-03  0.157E-01    0.89       1.0  T
   7     -9.4750632  0.257081E-04  0.152E-01    0.89       1.0  T
   8     -9.4753033 -0.240074E-03  0.243E-02    0.87       1.4  T
   9     -9.4753028  0.496846E-06  0.168E-02    0.87       2.0  T
  10     -9.4753067 -0.389456E-05  0.381E-03    0.87       8.8  T
  11     -9.4753067 -0.773106E-07  0.149E-03    0.87      22.3  T
  12     -9.4753068 -0.196108E-07  0.330E-04    0.87     100.9  T
  13     -9.4753068 -0.220334E-09  0.967E-05    0.87     344.8  T
     SCC iter.                  ...        0 min,  0.003 sec
     gradient                   ...        0 min,  0.001 sec
 * total energy  :    -9.2767315 Eh     change       -0.7288037E-02 Eh
   gradient norm :     0.0225187 Eh/α   predicted    -0.6782265E-02 (  -6.94%)
   displ. norm   :     0.2430335 α      lambda       -0.3026319E-02
   maximum displ.:     0.1441898 α      in ANC's #3, #2, #21, ...

........................................................................
.............................. CYCLE   13 ..............................
........................................................................
   1     -9.4730645 -0.947306E+01  0.617E-01    0.81       0.0  T
   2     -9.4694925  0.357204E-02  0.610E-01    0.73       1.0  T
   3     -9.4641750  0.531753E-02  0.744E-01    0.90       1.0  T
   4     -9.4689921 -0.481713E-02  0.455E-01    0.73       1.0  T
   5     -9.4732853 -0.429317E-02  0.873E-02    0.81       1.0  T
   6     -9.4733686 -0.833327E-04  0.319E-02    0.78       1.0  T
   7     -9.4733670  0.159169E-05  0.232E-02    0.79       1.4  T
   8     -9.4733702 -0.321303E-05  0.730E-03    0.79       4.6  T
   9     -9.4733705 -0.307861E-06  0.176E-03    0.79      18.9  T
  10     -9.4733705 -0.265385E-07  0.393E-04    0.79      84.9  T
  11     -9.4733705 -0.644800E-10  0.110E-04    0.79     304.1  T
     SCC iter.                  ...        0 min,  0.003 sec
     gradient                   ...        0 min,  0.001 sec
 * total energy  :    -9.2771986 Eh     change       -0.4671362E-03 Eh
   gradient norm :     0.0283000 Eh/α   predicted    -0.1602536E-02 ( 243.06%)
   displ. norm   :     0.3181215 α      lambda       -0.4137769E-02
   maximum displ.:     0.1523606 α      in ANC's #1, #8, #3, ...

........................................................................
.............................. CYCLE   14 ..............................
........................................................................
   1     -9.5003796 -0.950038E+01  0.970E-01    0.47       0.0  T
   2     -9.4694542  0.309254E-01  0.143E+00    0.73       1.0  T
   3     -9.4769994 -0.754515E-02  0.131E+00    0.42       1.0  T
   4     -9.5001034 -0.231040E-01  0.482E-01    0.60       1.0  T
   5     -9.5003897 -0.286346E-03  0.426E-01    0.56       1.0  T
   6     -9.4997702  0.619563E-03  0.437E-01    0.58       1.0  T
   7     -9.5008562 -0.108604E-02  0.354E-01    0.56       1.0  T
   8     -9.5019949 -0.113873E-02  0.656E-02    0.52       1.0  T
   9     -9.5020367 -0.417997E-04  0.162E-02    0.52       2.1  T
  10     -9.5020377 -0.948207E-06  0.397E-03    0.52       8.4  T
  11     -9.5020378 -0.165812E-06  0.122E-03    0.52      27.4  T
  12     -9.5020379 -0.149980E-07  0.412E-04    0.52      81.0  T
  13     -9.5020379 -0.956764E-09  0.883E-05    0.52     377.3  T
     SCC iter.                  ...        0 min,  0.002 sec
     gradient                   ...        0 min,  0.001 sec
 * total energy  :    -9.2765074 Eh     change        0.6912574E-03 Eh
   gradient norm :     0.0511345 Eh/α   predicted    -0.2278258E-02 (-429.58%)
   displ. norm   :     0.2377816 α      lambda       -0.6447789E-02
   maximum displ.:     0.1285572 α      in ANC's #10, #5, #1, ...

........................................................................
.............................. CYCLE   15 ..............................
........................................................................
   1     -9.4838545 -0.948385E+01  0.650E-01    0.56       0.0  T
   2     -9.4645423  0.193122E-01  0.109E+00    0.39       1.0  T
   3     -9.4772711 -0.127287E-01  0.755E-01    0.64       1.0  T
   4     -9.4832074 -0.593634E-02  0.318E-01    0.57       1.0  T
   5     -9.4845695 -0.136214E-02  0.136E-01    0.51       1.0  T
   6     -9.4845247  0.448614E-04  0.125E-01    0.52       1.0  T
   7     -9.4846864 -0.161711E-03  0.592E-02    0.52       1.0  T
   8     -9.4847077 -0.213609E-04  0.133E-02    0.51       2.5  T
   9     -9.4847089 -0.114643E-05  0.404E-03    0.51       8.2  T
  10     -9.4847090 -0.717677E-07  0.146E-03    0.51      22.8  T
  11     -9.4847090 -0.593837E-08  0.877E-04    0.51      38.0  T
  12     -9.4847090 -0.931333E-08  0.193E-04    0.51     173.0  T
     SCC iter.                  ...        0 min,  0.002 sec
     gradient                   ...        0 min,  0.001 sec
 * total energy  :    -9.2791561 Eh     change       -0.2648675E-02 Eh
   gradient norm :     0.0245511 Eh/α   predicted    -0.3406174E-02 (  28.60%)
   displ. norm   :     0.1557964 α      lambda       -0.2094658E-02
   maximum displ.:     0.0961786 α      in ANC's #3, #12, #2, ...

........................................................................
.............................. CYCLE   16 ..............................
........................................................................
   1     -9.4781912 -0.947819E+01  0.525E-01    0.63       0.0  T
   2     -9.4702794  0.791183E-02  0.675E-01    0.76       1.0  T
   3     -9.4688624  0.141696E-02  0.837E-01    0.57       1.0  T
   4     -9.4783170 -0.945461E-02  0.177E-01    0.63       1.0  T
   5     -9.4782875  0.294900E-04  0.156E-01    0.62       1.0  T
   6     -9.4785655 -0.277941E-03  0.104E-01    0.64       1.0  T
   7     -9.4786571 -0.916196E-04  0.339E-02    0.64       1.0  T
   8     -9.4786586 -0.148668E-05  0.272E-02    0.64       1.2  T
   9     -9.4786681 -0.949117E-05  0.310E-03    0.64      10.8  T
  10     -9.4786682 -0.110121E-06  0.894E-04    0.64      37.3  T
  11     -9.4786682 -0.870200E-08  0.158E-04    0.64     211.6  T
     SCC iter.                  ...        0 min,  0.002 sec
     gradient                   ...        0 min,  0.000 sec
 * total energy  :    -9.2796125 Eh     change       -0.4563964E-03 Eh
   gradient norm :     0.0207414 Eh/α   predicted    -0.1072752E-02 ( 135.05%)
   displ. norm   :     0.2091622 α      lambda       -0.1833268E-02
   maximum displ.:     0.0910889 α      in ANC's #4, #10, #8, ...

........................................................................
.............................. CYCLE   17 ..............................
........................................................................
   1     -9.4834640 -0.948346E+01  0.518E-01    0.51       0.0  T
   2     -9.4813616  0.210246E-02  0.525E-01    0.48       1.0  T
   3     -9.4768706  0.449097E-02  0.664E-01    0.59       1.0  T
   4     -9.4778529 -0.982278E-03  0.517E-01    0.44       1.0  T
   5     -9.4835248 -0.567190E-02  0.106E-01    0.53       1.0  T
   6     -9.4835646 -0.398906E-04  0.788E-02    0.52       1.0  T
   7     -9.4835714 -0.679423E-05  0.719E-02    0.52       1.0  T
   8     -9.4836292 -0.577815E-04  0.123E-02    0.51       2.7  T
   9     -9.4836310 -0.175445E-05  0.113E-03    0.51      29.6  T
  10     -9.4836310  0.491084E-08  0.815E-04    0.51      40.9  T
  11     -9.4836310 -0.477363E-08  0.324E-04    0.51     102.8  T
     SCC iter.                  ...        0 min,  0.001 sec
     gradient                   ...        0 min,  0.001 sec
 * total energy  :    -9.2799646 Eh     change       -0.3521687E-03 Eh
   gradient norm :     0.0249690 Eh/α   predicted    -0.9567361E-03 ( 171.67%)
   displ. norm   :     0.3025781 α      lambda       -0.2637849E-02
   maximum displ.:     0.1598212 α      in ANC's #1, #7, #4, ...

........................................................................
.............................. CYCLE   18 ..............................
........................................................................
   1     -9.4802292 -0.948023E+01  0.104E+00    0.27       0.0  T
   2     -9.3112036  0.169026E+00  0.337E+00    0.27       1.0  T
   3     -9.4605610 -0.149357E+00  0.131E+00    0.52       1.0  T
   4     -9.4786058 -0.180448E-01  0.799E-01    0.29       1.0  T
   5     -9.4679044  0.107014E-01  0.971E-01    0.43       1.0  T
   6     -9.4762063 -0.830195E-02  0.733E-01    0.37       1.0  T
   7     -9.4756474  0.558936E-03  0.742E-01    0.36       1.0  T
   8     -9.4811477 -0.550026E-02  0.376E-01    0.30       1.0  T
   9     -9.4819065 -0.758790E-03  0.289E-01    0.29       1.0  T
  10     -9.4820780 -0.171577E-03  0.250E-01    0.28       1.0  T
  11     -9.4824798 -0.401799E-03  0.884E-02    0.26       1.0  T
  12     -9.4825339 -0.540737E-04  0.341E-02    0.25       1.0  T
  13     -9.4825419 -0.799283E-05  0.528E-03    0.25       6.3  T
  14     -9.4825421 -0.167323E-06  0.128E-03    0.25      26.0  T
  15     -9.4825421 -0.124223E-07  0.832E-04    0.25      40.1  T
  16     -9.4825421 -0.272329E-08  0.267E-04    0.25     124.8  T
     SCC iter.                  ...        0 min,  0.002 sec
     gradient                   ...        0 min,  0.000 sec
 * total energy  :    -9.2802007 Eh     change       -0.2361240E-03 Eh
   gradient norm :     0.0452586 Eh/α   predicted    -0.1439678E-02 ( 509.71%)
   displ. norm   :     0.1355452 α      lambda       -0.2449126E-02
   maximum displ.:     0.0708641 α      in ANC's #5, #6, #1, ...

........................................................................
.............................. CYCLE   19 ..............................
........................................................................
   1     -9.4825277 -0.948253E+01  0.890E-01    0.34       0.0  T
   2     -9.3983733  0.841544E-01  0.215E+00    0.86       1.0  T
   3     -9.4702044 -0.718311E-01  0.113E+00    0.32       1.0  T
   4     -9.4843423 -0.141379E-01  0.439E-01    0.43       1.0  T
   5     -9.4864776 -0.213525E-02  0.262E-01    0.35       1.0  T
   6     -9.4868863 -0.408733E-03  0.164E-01    0.38       1.0  T
   7     -9.4869199 -0.336427E-04  0.131E-01    0.38       1.0  T
   8     -9.4870018 -0.818532E-04  0.586E-02    0.37       1.0  T
   9     -9.4870084 -0.666257E-05  0.488E-02    0.37       1.0  T
  10     -9.4870450 -0.365941E-04  0.118E-02    0.37       2.8  T
  11     -9.4870449  0.161693E-06  0.117E-02    0.37       2.8  T
  12     -9.4870456 -0.705941E-06  0.699E-04    0.37      47.7  T
  13     -9.4870456 -0.847550E-09  0.529E-04    0.37      63.0  T
     SCC iter.                  ...        0 min,  0.002 sec
     gradient                   ...        0 min,  0.000 sec
 * total energy  :    -9.2813773 Eh     change       -0.1176515E-02 Eh
   gradient norm :     0.0100012 Eh/α   predicted    -0.1247061E-02 (   6.00%)
   displ. norm   :     0.2147123 α      lambda       -0.8479271E-03
   maximum displ.:     0.0781186 α      in ANC's #8, #4, #3, ...

........................................................................
.............................. CYCLE   20 ..............................
........................................................................
   1     -9.4852355 -0.948524E+01  0.596E-01    0.28       0.0  T
   2     -9.4553504  0.298851E-01  0.137E+00    0.50       1.0  T
   3     -9.4630647 -0.771435E-02  0.135E+00    0.27       1.0  T
   4     -9.4831579 -0.200932E-01  0.449E-01    0.27       1.0  T
   5     -9.4843776 -0.121966E-02  0.362E-01    0.33       1.0  T
   6     -9.4853508 -0.973181E-03  0.263E-01    0.31       1.0  T
   7     -9.4858685 -0.517725E-03  0.177E-01    0.31       1.0  T
   8     -9.4860874 -0.218864E-03  0.661E-02    0.30       1.0  T
   9     -9.4861242 -0.368649E-04  0.366E-02    0.30       1.0  T
  10     -9.4861307 -0.645639E-05  0.153E-02    0.30       2.2  T
  11     -9.4861302  0.444414E-06  0.118E-02    0.30       2.8  T
  12     -9.4861311 -0.849731E-06  0.416E-03    0.29       8.0  T
  13     -9.4861312 -0.151913E-06  0.717E-04    0.29      46.5  T
  14     -9.4861312 -0.267526E-08  0.928E-05    0.29     359.3  T
     SCC iter.                  ...        0 min,  0.002 sec
     gradient                   ...        0 min,  0.001 sec
 * total energy  :    -9.2820211 Eh     change       -0.6438865E-03 Eh
   gradient norm :     0.0088846 Eh/α   predicted    -0.4435093E-03 ( -31.12%)
   displ. norm   :     0.6365820 α      lambda       -0.1734520E-02
   maximum displ.:     0.2582126 α      in ANC's #4, #2, #8, ...
 * RMSD in coord.:     1.8377915 α      energy gain  -0.5247809E+00 Eh

generating ANC from model Hessian ...
Using Lindh-Hessian (1995)
 Shifting diagonal of input Hessian by    1.0229140070568889E-002
 Lowest  eigenvalues of input Hessian
    0.010000    0.010118    0.010169    0.000000    0.000000    0.000000
    0.000000    0.000000    0.000000    0.010341    0.010463    0.010493
    0.010555    0.010836    0.011279    0.011579    0.050068    0.073906
 Highest eigenvalues
    0.435300    0.543786    0.592811    0.890376    1.218940    1.865647


........................................................................
.............................. CYCLE   21 ..............................
........................................................................
   1     -9.3932954 -0.939330E+01  0.321E+00    0.23       0.0  T
   2     -5.7541830  0.363911E+01  0.110E+01    0.79       1.0  T
   3     -9.1638310 -0.340965E+01  0.339E+00    0.87       1.0  T
   4     -9.4343070 -0.270476E+00  0.169E+00    0.16       1.0  T
   5     -9.4721293 -0.378224E-01  0.139E+00    0.19       1.0  T
   6     -9.4570930  0.150363E-01  0.178E+00    0.20       1.0  T
   7     -9.4624447 -0.535166E-02  0.171E+00    0.18       1.0  T
   8     -9.4631889 -0.744240E-03  0.172E+00    0.18       1.0  T
   9     -9.4387176  0.244713E-01  0.287E+00    0.16       1.0  T
  10     -9.3808318  0.578859E-01  0.408E+00    0.24       1.0  T
  11     -9.4461466 -0.653149E-01  0.188E+00    0.18       1.0  T
  12     -9.4662315 -0.200849E-01  0.113E+00    0.16       1.0  T
  13     -9.4710617 -0.483024E-02  0.827E-01    0.16       1.0  T
  14     -9.4747093 -0.364756E-02  0.532E-01    0.16       1.0  T
  15     -9.4768420 -0.213274E-02  0.284E-01    0.16       1.0  T
  16     -9.4775161 -0.674086E-03  0.121E-01    0.16       1.0  T
  17     -9.4776673 -0.151184E-03  0.176E-02    0.16       1.9  T
  18     -9.4776705 -0.323345E-05  0.960E-03    0.16       3.5  T
  19     -9.4776702  0.382596E-06  0.129E-02    0.16       2.6  T
  20     -9.4776703 -0.119009E-06  0.854E-03    0.16       3.9  T
  21     -9.4776707 -0.434631E-06  0.281E-03    0.16      11.9  T
  22     -9.4776708 -0.334992E-07  0.162E-03    0.16      20.6  T
  23     -9.4776708 -0.158948E-07  0.730E-04    0.16      45.7  T
  24     -9.4776708 -0.391315E-08  0.287E-04    0.16     116.2  T
     SCC iter.                  ...        0 min,  0.003 sec
     gradient                   ...        0 min,  0.000 sec
 * total energy  :    -9.2834674 Eh     change       -0.1446254E-02 Eh
   gradient norm :     0.0315992 Eh/α   predicted     0.0000000E+00 (-100.00%)
   displ. norm   :     0.1125915 α      lambda       -0.1525386E-02
   maximum displ.:     0.0611977 α      in ANC's #11, #10, #9, ...

........................................................................
.............................. CYCLE   22 ..............................
........................................................................
   1     -9.4782491 -0.947825E+01  0.106E+00    0.16       0.0  T
   2     -9.1542661  0.323983E+00  0.391E+00    1.09       1.0  T
   3     -9.4021960 -0.247930E+00  0.234E+00    0.30       1.0  T
   4     -9.4047240 -0.252799E-02  0.230E+00    0.29       1.0  T
   5     -9.4565189 -0.517948E-01  0.130E+00    0.22       1.0  T
   6     -9.4859097 -0.293908E-01  0.375E-01    0.16       1.0  T
   7     -9.4540082  0.319014E-01  0.192E+00    0.21       1.0  T
   8     -9.4560462 -0.203802E-02  0.192E+00    0.21       1.0  T
   9     -9.4762273 -0.201811E-01  0.115E+00    0.18       1.0  T
  10     -9.4625700  0.136574E-01  0.171E+00    0.20       1.0  T
  11     -9.4863279 -0.237579E-01  0.477E-01    0.16       1.0  T
  12     -9.4877781 -0.145018E-02  0.127E-01    0.16       1.0  T
  13     -9.4873067  0.471392E-03  0.267E-01    0.16       1.0  T
  14     -9.4878458 -0.539082E-03  0.727E-02    0.16       1.0  T
  15     -9.4878305  0.152721E-04  0.690E-02    0.16       1.0  T
  16     -9.4878427 -0.121858E-04  0.501E-02    0.16       1.0  T
  17     -9.4878580 -0.153771E-04  0.977E-03    0.16       3.4  T
  18     -9.4878583 -0.228967E-06  0.343E-03    0.16       9.7  T
  19     -9.4878583 -0.142042E-07  0.123E-03    0.16      27.2  T
  20     -9.4878583 -0.679856E-08  0.157E-04    0.16     212.9  T
  21     -9.4878583  0.647180E-09  0.299E-04    0.16     111.4  T
     SCC iter.                  ...        0 min,  0.003 sec
     gradient                   ...        0 min,  0.000 sec
 * total energy  :    -9.2845253 Eh     change       -0.1057927E-02 Eh
   gradient norm :     0.0135794 Eh/α   predicted    -0.7723627E-03 ( -26.99%)
   displ. norm   :     0.1614212 α      lambda       -0.8697238E-03
   maximum displ.:     0.0743399 α      in ANC's #10, #9, #11, ...

........................................................................
.............................. CYCLE   23 ..............................
........................................................................
   1     -9.4745932 -0.947459E+01  0.153E+00    0.17       0.0  T
   2     -8.0269610  0.144763E+01  0.891E+00    1.41       1.0  T
   3     -9.4004103 -0.137345E+01  0.237E+00    0.34       1.0  T
   4     -9.4474388 -0.470285E-01  0.174E+00    0.21       1.0  T
   5     -9.4920689 -0.446301E-01  0.537E-01    0.16       1.0  T
   6     -9.4692057  0.228632E-01  0.170E+00    0.16       1.0  T
   7     -9.4701443 -0.938611E-03  0.169E+00    0.16       1.0  T
   8     -9.4673760  0.276835E-02  0.195E+00    0.17       1.0  T
   9     -9.4684164 -0.104040E-02  0.191E+00    0.17       1.0  T
  10     -9.4669934  0.142296E-02  0.198E+00    0.17       1.0  T
  11     -9.4875449 -0.205515E-01  0.860E-01    0.16       1.0  T
  12     -9.4862021  0.134285E-02  0.938E-01    0.16       1.0  T
  13     -9.4929040 -0.670198E-02  0.335E-01    0.15       1.0  T
  14     -9.4925772  0.326805E-03  0.366E-01    0.15       1.0  T
  15     -9.4930023 -0.425061E-03  0.283E-01    0.15       1.0  T
  16     -9.4931956 -0.193362E-03  0.231E-01    0.15       1.0  T
  17     -9.4934879 -0.292298E-03  0.121E-01    0.15       1.0  T
  18     -9.4935639 -0.759785E-04  0.704E-02    0.15       1.0  T
  19     -9.4936021 -0.382234E-04  0.133E-02    0.15       2.5  T
  20     -9.4936035 -0.139123E-05  0.423E-03    0.15       7.9  T
  21     -9.4936036 -0.102868E-06  0.119E-03    0.15      27.9  T
  22     -9.4936036 -0.159766E-08  0.610E-04    0.15      54.7  T
  23     -9.4936036 -0.287529E-08  0.220E-04    0.15     151.6  T
     SCC iter.                  ...        0 min,  0.003 sec
     gradient                   ...        0 min,  0.001 sec
 * total energy  :    -9.2852403 Eh     change       -0.7149730E-03 Eh
   gradient norm :     0.0107286 Eh/α   predicted    -0.4461929E-03 ( -37.59%)
   displ. norm   :     0.4521103 α      lambda       -0.2009224E-02
   maximum displ.:     0.2055552 α      in ANC's #11, #10, #9, ...

........................................................................
.............................. CYCLE   24 ..............................
........................................................................
   1     -9.4462194 -0.944622E+01  0.278E+00    0.27       0.0  T
   2     -6.5755503  0.287067E+01  0.111E+01    1.12       1.0  T
   3     -9.3209268 -0.274538E+01  0.265E+00    0.93       1.0  T
   4     -9.3939504 -0.730236E-01  0.302E+00    0.12       1.0  T
   5     -9.3414724  0.524779E-01  0.342E+00    0.18       1.0  T
   6     -9.3202279  0.212445E-01  0.354E+00    0.20       1.0  T
   7     -9.3311344 -0.109065E-01  0.323E+00    0.19       1.0  T
   8     -9.4163186 -0.851842E-01  0.477E+00    0.34       1.0  T
   9     -9.4292719 -0.129533E-01  0.295E+00    0.32       1.0  T
  10     -9.4433453 -0.140734E-01  0.248E+00    0.27       1.0  T
  11     -9.4497713 -0.642602E-02  0.223E+00    0.24       1.0  T
  12     -9.4553243 -0.555292E-02  0.204E+00    0.22       1.0  T
  13     -9.4912153 -0.358910E-01  0.489E-01    0.12       1.0  T
  14     -9.4830447  0.817062E-02  0.102E+00    0.14       1.0  T
  15     -9.4925320 -0.948734E-02  0.224E-01    0.11       1.0  T
  16     -9.4923841  0.147942E-03  0.146E-01    0.11       1.0  T
  17     -9.4925117 -0.127562E-03  0.112E-01    0.11       1.0  T
  18     -9.4925762 -0.645138E-04  0.223E-02    0.11       1.5  T
  19     -9.4925752  0.973459E-06  0.159E-02    0.11       2.1  T
  20     -9.4925775 -0.232703E-05  0.400E-03    0.11       8.3  T
  21     -9.4925751  0.244843E-05  0.175E-02    0.11       1.9  T
  22     -9.4925774 -0.235627E-05  0.427E-03    0.11       7.8  T
  23     -9.4925776 -0.153620E-06  0.136E-04    0.11     244.9  T
  24     -9.4925776  0.827715E-08  0.101E-03    0.11      33.1  T
  25     -9.4925776 -0.796499E-08  0.227E-04    0.11     146.9  T
     SCC iter.                  ...        0 min,  0.004 sec
     gradient                   ...        0 min,  0.000 sec
 * total energy  :    -9.2869406 Eh     change       -0.1700344E-02 Eh
   gradient norm :     0.0175972 Eh/α   predicted    -0.1209950E-02 ( -28.84%)
   displ. norm   :     0.5100447 α      lambda       -0.1843440E-02
   maximum displ.:     0.2347088 α      in ANC's #12, #11, #3, ...

........................................................................
.............................. CYCLE   25 ..............................
........................................................................
   1     -9.4654295 -0.946543E+01  0.223E+00    0.21       0.0  T
   2     -8.2225264  0.124290E+01  0.838E+00    1.18       1.0  T
   3     -9.4080556 -0.118553E+01  0.193E+00    0.72       1.0  T
   4     -9.0991818  0.308874E+00  0.509E+00    0.40       1.0  T
   5     -9.1153528 -0.161710E-01  0.495E+00    0.34       1.0  T
   6     -9.1549601 -0.396073E-01  0.470E+00    0.26       1.0  T
   7     -9.4465563 -0.291596E+00  0.359E+00    0.26       1.0  T
   8     -9.4405424  0.601389E-02  0.225E+00    0.40       1.0  T
   9     -9.4547092 -0.141667E-01  0.184E+00    0.29       1.0  T
  10     -9.4542677  0.441439E-03  0.186E+00    0.30       1.0  T
  11     -9.4500017  0.426602E-02  0.195E+00    0.33       1.0  T
  12     -9.4755949 -0.255932E-01  0.739E-01    0.15       1.0  T
  13     -9.4768006 -0.120569E-02  0.568E-01    0.14       1.0  T
  14     -9.4798862 -0.308559E-02  0.112E-01    0.10       1.0  T
  15     -9.4797873  0.988591E-04  0.151E-01    0.09       1.0  T
  16     -9.4798918 -0.104469E-03  0.878E-02    0.11       1.0  T
  17     -9.4799081 -0.162489E-04  0.725E-02    0.10       1.0  T
  18     -9.4799535 -0.454702E-04  0.257E-03    0.10      13.0  T
  19     -9.4799535  0.451048E-07  0.383E-03    0.10       8.7  T
  20     -9.4799535  0.346785E-07  0.409E-03    0.10       8.1  T
  21     -9.4799536 -0.138076E-06  0.101E-03    0.10      33.1  T
  22     -9.4799536 -0.612661E-08  0.509E-04    0.10      65.4  T
  23     -9.4799536 -0.150805E-08  0.256E-04    0.10     130.2  T
     SCC iter.                  ...        0 min,  0.004 sec
     gradient                   ...        0 min,  0.000 sec
 * total energy  :    -9.2862272 Eh     change        0.7134554E-03 Eh
   gradient norm :     0.0569588 Eh/α   predicted    -0.1161491E-02 (-262.80%)
   displ. norm   :     0.2775968 α      lambda       -0.3856746E-02
   maximum displ.:     0.1355553 α      in ANC's #11, #12, #7, ...

........................................................................
.............................. CYCLE   26 ..............................
........................................................................
   1     -9.4842777 -0.948428E+01  0.165E+00    0.08       0.0  T
   2     -9.3378726  0.146405E+00  0.258E+00    1.25       1.0  T
   3     -9.1725677  0.165305E+00  0.501E+00    0.36       1.0  T
   4     -9.1508848  0.216829E-01  0.515E+00    0.41       1.0  T
   5     -9.1706280 -0.197432E-01  0.418E+00    0.41       1.0  T
   6     -9.4295040 -0.258876E+00  0.305E+00    0.38       1.0  T
   7     -9.4321265 -0.262250E-02  0.287E+00    0.41       1.0  T
   8     -9.4456821 -0.135555E-01  0.265E+00    0.34       1.0  T
   9     -9.4572514 -0.115693E-01  0.233E+00    0.28       1.0  T
  10     -9.4900485 -0.327972E-01  0.958E-01    0.13       1.0  T
  11     -9.4911216 -0.107310E-02  0.667E-01    0.14       1.0  T
  12     -9.4903348  0.786833E-03  0.731E-01    0.14       1.0  T
  13     -9.4946892 -0.435437E-02  0.110E-01    0.11       1.0  T
  14     -9.4945759  0.113268E-03  0.155E-01    0.11       1.0  T
  15     -9.4947253 -0.149409E-03  0.461E-02    0.11       1.0  T
  16     -9.4947284 -0.309129E-05  0.394E-02    0.11       1.0  T
  17     -9.4947406 -0.122110E-04  0.483E-03    0.11       6.9  T
  18     -9.4947408 -0.177810E-06  0.375E-04    0.11      88.9  T
  19     -9.4947408  0.357631E-08  0.789E-04    0.11      42.2  T
     SCC iter.                  ...        0 min,  0.002 sec
     gradient                   ...        0 min,  0.000 sec
 * total energy  :    -9.2877961 Eh     change       -0.1568955E-02 Eh
   gradient norm :     0.0105139 Eh/α   predicted    -0.2076979E-02 (  32.38%)
   displ. norm   :     0.0787339 α      lambda       -0.3540863E-03
   maximum displ.:     0.0437112 α      in ANC's #10, #11, #8, ...

........................................................................
.............................. CYCLE   27 ..............................
........................................................................
   1     -9.4940361 -0.949404E+01  0.297E-01    0.11       0.0  T
   2     -9.4579276  0.361085E-01  0.184E+00    0.06       1.0  T
   3     -9.4870837 -0.291561E-01  0.806E-01    0.17       1.0  T
   4     -9.4899862 -0.290243E-02  0.586E-01    0.08       1.0  T
   5     -9.4939320 -0.394587E-02  0.172E-01    0.12       1.0  T
   6     -9.4931800  0.752001E-03  0.317E-01    0.13       1.0  T
   7     -9.4932592 -0.792253E-04  0.301E-01    0.13       1.0  T
   8     -9.4940887 -0.829497E-03  0.452E-02    0.11       1.0  T
   9     -9.4940595  0.292084E-04  0.698E-02    0.11       1.0  T
  10     -9.4940762 -0.166958E-04  0.522E-02    0.11       1.0  T
  11     -9.4940841 -0.789164E-05  0.366E-02    0.11       1.0  T
  12     -9.4940946 -0.104383E-04  0.127E-02    0.11       2.6  T
  13     -9.4940959 -0.138088E-05  0.308E-03    0.11      10.8  T
  14     -9.4940960 -0.833739E-07  0.196E-04    0.11     170.3  T
  15     -9.4940960 -0.518501E-10  0.473E-05    0.11     705.1  T
     SCC iter.                  ...        0 min,  0.001 sec
     gradient                   ...        0 min,  0.000 sec
 * total energy  :    -9.2880485 Eh     change       -0.2523818E-03 Eh
   gradient norm :     0.0104713 Eh/α   predicted    -0.1781401E-03 ( -29.42%)
   displ. norm   :     0.2359314 α      lambda       -0.7397594E-03
   maximum displ.:     0.1174589 α      in ANC's #3, #10, #11, ...

........................................................................
.............................. CYCLE   28 ..............................
........................................................................
   1     -9.4908877 -0.949089E+01  0.855E-01    0.13       0.0  T
   2     -9.1777939  0.313094E+00  0.525E+00    0.21       1.0  T
   3     -9.4748517 -0.297058E+00  0.116E+00    0.33       1.0  T
   4     -9.3365327  0.138319E+00  0.373E+00    0.08       1.0  T
   5     -9.3662285 -0.296958E-01  0.321E+00    0.06       1.0  T
   6     -9.4915518 -0.125323E+00  0.320E-01    0.11       1.0  T
   7     -9.4817350  0.981676E-02  0.101E+00    0.23       1.0  T
   8     -9.4848523 -0.311730E-02  0.934E-01    0.20       1.0  T
   9     -9.4872556 -0.240333E-02  0.766E-01    0.17       1.0  T
  10     -9.4895803 -0.232468E-02  0.547E-01    0.15       1.0  T
  11     -9.4880516  0.152869E-02  0.711E-01    0.17       1.0  T
  12     -9.4870810  0.970630E-03  0.797E-01    0.17       1.0  T
  13     -9.4917117 -0.463066E-02  0.593E-02    0.12       1.0  T
  14     -9.4916611  0.505393E-04  0.844E-02    0.12       1.0  T
  15     -9.4917004 -0.392606E-04  0.443E-02    0.12       1.0  T
  16     -9.4917126 -0.122172E-04  0.181E-02    0.12       1.8  T
  17     -9.4917153 -0.268043E-05  0.158E-03    0.12      21.1  T
  18     -9.4917153 -0.884129E-08  0.110E-03    0.12      30.4  T
  19     -9.4917153  0.668868E-09  0.120E-03    0.12      27.8  T
  20     -9.4917153 -0.115320E-07  0.251E-05    0.12    1329.2  T
  21     -9.4917153  0.262901E-12  0.266E-05    0.12    1251.9  T
     SCC iter.                  ...        0 min,  0.004 sec
     gradient                   ...        0 min,  0.000 sec
 * total energy  :    -9.2886443 Eh     change       -0.5957322E-03 Eh
   gradient norm :     0.0138862 Eh/α   predicted    -0.3904666E-03 ( -34.46%)
   displ. norm   :     0.4501639 α      lambda       -0.1227575E-02
   maximum displ.:     0.2431998 α      in ANC's #3, #10, #11, ...

........................................................................
.............................. CYCLE   29 ..............................
........................................................................
   1     -9.4837535 -0.948375E+01  0.136E+00    0.17       0.0  T
   2     -9.4817150  0.203852E-02  0.101E+00    0.19       1.0  T
   3     -9.4705392  0.111758E-01  0.106E+00    0.35       1.0  T
   4     -8.9667954  0.503744E+00  0.633E+00    0.33       1.0  T
   5     -9.4604881 -0.493693E+00  0.121E+00    0.07       1.0  T
   6     -9.4842020 -0.237139E-01  0.277E-01    0.28       1.0  T
   7     -9.4847694 -0.567428E-03  0.193E-01    0.26       1.0  T
   8     -9.4843241  0.445382E-03  0.196E-01    0.28       1.0  T
   9     -9.4849097 -0.585690E-03  0.156E-01    0.25       1.0  T
  10     -9.4849527 -0.429158E-04  0.141E-01    0.24       1.0  T
  11     -9.4849495  0.314153E-05  0.138E-01    0.24       1.0  T
  12     -9.4849799 -0.303546E-04  0.126E-01    0.24       1.0  T
  13     -9.4849972 -0.173269E-04  0.114E-01    0.24       1.0  T
  14     -9.4850373 -0.401384E-04  0.851E-02    0.24       1.0  T
  15     -9.4850830 -0.456526E-04  0.252E-02    0.23       1.3  T
  16     -9.4850864 -0.343786E-05  0.995E-03    0.23       3.3  T
  17     -9.4850864  0.430881E-07  0.101E-02    0.23       3.3  T
  18     -9.4850871 -0.703988E-06  0.125E-03    0.23      26.7  T
  19     -9.4850871 -0.135285E-07  0.340E-04    0.23      98.0  T
  20     -9.4850871 -0.487006E-09  0.693E-05    0.23     481.2  T
     SCC iter.                  ...        0 min,  0.003 sec
     gradient                   ...        0 min,  0.000 sec
 * total energy  :    -9.2893954 Eh     change       -0.7511593E-03 Eh
   gradient norm :     0.0283714 Eh/α   predicted    -0.7381748E-03 (  -1.73%)
   displ. norm   :     0.2139644 α      lambda       -0.1320893E-02
   maximum displ.:     0.0963822 α      in ANC's #14, #3, #7, ...

........................................................................
.............................. CYCLE   30 ..............................
........................................................................
   1     -9.4897764 -0.948978E+01  0.641E-01    0.27       0.0  T
   2     -9.4866613  0.311511E-02  0.683E-01    0.53       1.0  T
   3     -9.4878358 -0.117450E-02  0.404E-01    0.22       1.0  T
   4     -9.4720737  0.157621E-01  0.865E-01    0.74       1.0  T
   5     -9.4891104 -0.170367E-01  0.223E-01    0.47       1.0  T
   6     -9.4906943 -0.158389E-02  0.808E-02    0.35       1.0  T
   7     -9.4906892  0.503733E-05  0.700E-02    0.35       1.0  T
   8     -9.4906988 -0.959552E-05  0.184E-02    0.37       1.8  T
   9     -9.4907028 -0.395008E-05  0.125E-02    0.36       2.7  T
  10     -9.4907028 -0.511154E-08  0.162E-03    0.36      20.5  T
  11     -9.4907028 -0.141529E-07  0.535E-04    0.36      62.3  T
  12     -9.4907028 -0.452759E-08  0.922E-05    0.36     361.6  T
     SCC iter.                  ...        0 min,  0.001 sec
     gradient                   ...        0 min,  0.000 sec
 * total energy  :    -9.2905348 Eh     change       -0.1139425E-02 Eh
   gradient norm :     0.0170826 Eh/α   predicted    -0.6906807E-03 ( -39.38%)
   displ. norm   :     0.4704455 α      lambda       -0.3366279E-02
   maximum displ.:     0.2663780 α      in ANC's #14, #5, #15, ...

........................................................................
.............................. CYCLE   31 ..............................
........................................................................
   1     -9.4952704 -0.949527E+01  0.146E+00    0.40       0.0  T
   2     -9.4627856  0.324848E-01  0.185E+00    1.20       1.0  T
   3     -9.4971837 -0.343981E-01  0.811E-01    0.43       1.0  T
   4     -9.4376789  0.595048E-01  0.168E+00    1.40       1.0  T
   5     -9.5000777 -0.623988E-01  0.310E-01    0.77       1.0  T
   6     -9.5024081 -0.233040E-02  0.125E-01    0.66       1.0  T
   7     -9.5025008 -0.927043E-04  0.808E-02    0.62       1.0  T
   8     -9.5025163 -0.154814E-04  0.201E-02    0.64       1.7  T
   9     -9.5025226 -0.636030E-05  0.110E-02    0.64       3.0  T
  10     -9.5025246 -0.202458E-05  0.187E-03    0.63      17.8  T
  11     -9.5025247 -0.580873E-07  0.105E-03    0.63      31.7  T
  12     -9.5025247 -0.257780E-07  0.210E-04    0.63     159.1  T
  13     -9.5025247 -0.984516E-09  0.199E-05    0.63    1679.0  T
     SCC iter.                  ...        0 min,  0.001 sec
     gradient                   ...        0 min,  0.000 sec
 * total energy  :    -9.2922548 Eh     change       -0.1719971E-02 Eh
   gradient norm :     0.0208825 Eh/α   predicted    -0.2055651E-02 (  19.52%)
   displ. norm   :     0.3407632 α      lambda       -0.1470880E-02
   maximum displ.:     0.2276687 α      in ANC's #3, #7, #14, ...

........................................................................
.............................. CYCLE   32 ..............................
........................................................................
   1     -9.4997951 -0.949980E+01  0.878E-01    0.54       0.0  T
   2     -9.4934657  0.632934E-02  0.838E-01    0.87       1.0  T
   3     -9.4816095  0.118563E-01  0.799E-01    0.30       1.0  T
   4     -9.4858554 -0.424596E-02  0.738E-01    0.94       1.0  T
   5     -9.4989379 -0.130825E-01  0.235E-01    0.75       1.0  T
   6     -9.5005578 -0.161983E-02  0.721E-02    0.66       1.0  T
   7     -9.5006146 -0.568269E-04  0.452E-02    0.65       1.0  T
   8     -9.5006198 -0.523497E-05  0.653E-03    0.65       5.1  T
   9     -9.5006197  0.119366E-06  0.703E-03    0.65       4.7  T
  10     -9.5006200 -0.305375E-06  0.527E-04    0.65      63.3  T
  11     -9.5006200 -0.256707E-09  0.272E-04    0.65     122.7  T
     SCC iter.                  ...        0 min,  0.001 sec
     gradient                   ...        0 min,  0.000 sec
 * total energy  :    -9.2926149 Eh     change       -0.3600929E-03 Eh
   gradient norm :     0.0293392 Eh/α   predicted    -0.8208351E-03 ( 127.95%)
   displ. norm   :     0.1155197 α      lambda       -0.1250407E-02
   maximum displ.:     0.0531502 α      in ANC's #12, #6, #4, ...

........................................................................
.............................. CYCLE   33 ..............................
........................................................................
   1     -9.5071273 -0.950713E+01  0.385E-01    0.59       0.0  T
   2     -9.5068648  0.262540E-03  0.252E-01    0.64       1.0  T
   3     -9.4968546  0.100102E-01  0.569E-01    0.36       1.0  T
   4     -9.5066681 -0.981351E-02  0.150E-01    0.66       1.0  T
   5     -9.5071486 -0.480523E-03  0.275E-02    0.61       1.2  T
   6     -9.5071619 -0.132917E-04  0.144E-02    0.60       2.3  T
   7     -9.5071627 -0.786158E-06  0.362E-03    0.60       9.2  T
   8     -9.5071630 -0.257358E-06  0.196E-03    0.60      17.0  T
   9     -9.5071630 -0.201455E-07  0.127E-03    0.60      26.3  T
  10     -9.5071630 -0.392445E-07  0.272E-04    0.60     122.4  T
  11     -9.5071630 -0.131967E-08  0.286E-05    0.60    1165.4  T
     SCC iter.                  ...        0 min,  0.002 sec
     gradient                   ...        0 min,  0.000 sec
 * total energy  :    -9.2931925 Eh     change       -0.5776333E-03 Eh
   gradient norm :     0.0233431 Eh/α   predicted    -0.6335474E-03 (   9.68%)
   displ. norm   :     0.4286972 α      lambda       -0.2131086E-02
   maximum displ.:     0.2195470 α      in ANC's #3, #10, #14, ...

........................................................................
.............................. CYCLE   34 ..............................
........................................................................
   1     -9.4711729 -0.947117E+01  0.142E+00    0.48       0.0  T
   2     -9.4168482  0.543247E-01  0.194E+00    1.41       1.0  T
   3     -9.4561108 -0.392626E-01  0.112E+00    0.30       1.0  T
   4     -9.4447827  0.113281E-01  0.120E+00    1.18       1.0  T
   5     -9.4777933 -0.330105E-01  0.284E-01    0.82       1.0  T
   6     -9.4800687 -0.227545E-02  0.922E-02    0.71       1.0  T
   7     -9.4801384 -0.696673E-04  0.744E-02    0.69       1.0  T
   8     -9.4801376  0.829128E-06  0.189E-02    0.70       1.8  T
   9     -9.4801344  0.311334E-05  0.208E-02    0.70       1.6  T
  10     -9.4801424 -0.799128E-05  0.132E-03    0.70      25.2  T
  11     -9.4801424 -0.203576E-08  0.719E-04    0.70      46.4  T
  12     -9.4801424 -0.727937E-08  0.996E-05    0.70     334.8  T
     SCC iter.                  ...        0 min,  0.002 sec
     gradient                   ...        0 min,  0.000 sec
 * total energy  :    -9.2907562 Eh     change        0.2436354E-02 Eh
   gradient norm :     0.0726845 Eh/α   predicted    -0.1261375E-02 (-151.77%)
   displ. norm   :     0.2684848 α      lambda       -0.6339914E-02
   maximum displ.:     0.1109873 α      in ANC's #10, #3, #6, ...

........................................................................
.............................. CYCLE   35 ..............................
........................................................................
   1     -9.4997236 -0.949972E+01  0.923E-01    0.78       0.0  T
   2     -9.4761605  0.235631E-01  0.113E+00    0.25       1.0  T
   3     -9.4853709 -0.921042E-02  0.880E-01    1.04       1.0  T
   4     -9.4978642 -0.124934E-01  0.567E-01    0.53       1.0  T
   5     -9.5030599 -0.519566E-02  0.111E-01    0.65       1.0  T
   6     -9.5031188 -0.588981E-04  0.704E-02    0.63       1.0  T
   7     -9.5030686  0.501969E-04  0.745E-02    0.62       1.0  T
   8     -9.5031293 -0.607262E-04  0.163E-02    0.65       2.0  T
   9     -9.5031301 -0.795277E-06  0.133E-02    0.65       2.5  T
  10     -9.5031344 -0.425285E-05  0.686E-04    0.65      48.6  T
  11     -9.5031344 -0.121524E-08  0.188E-04    0.65     177.5  T
  12     -9.5031344 -0.441611E-09  0.488E-05    0.65     683.0  T
     SCC iter.                  ...        0 min,  0.001 sec
     gradient                   ...        0 min,  0.000 sec
 * total energy  :    -9.2937291 Eh     change       -0.2972910E-02 Eh
   gradient norm :     0.0094433 Eh/α   predicted    -0.3398460E-02 (  14.31%)
   displ. norm   :     0.1405715 α      lambda       -0.3126433E-03
   maximum displ.:     0.0624839 α      in ANC's #9, #4, #7, ...

........................................................................
.............................. CYCLE   36 ..............................
........................................................................
   1     -9.5058508 -0.950585E+01  0.364E-01    0.61       0.0  T
   2     -9.5057622  0.885293E-04  0.241E-01    0.64       1.0  T
   3     -9.4976849  0.807734E-02  0.501E-01    0.39       1.0  T
   4     -9.5057586 -0.807368E-02  0.673E-02    0.65       1.0  T
   5     -9.5058367 -0.780893E-04  0.413E-02    0.64       1.0  T
   6     -9.5058617 -0.250298E-04  0.742E-03    0.62       4.5  T
   7     -9.5058618 -0.792046E-07  0.244E-03    0.62      13.7  T
   8     -9.5058618 -0.486795E-07  0.136E-03    0.62      24.6  T
   9     -9.5058618  0.105902E-07  0.831E-04    0.62      40.1  T
  10     -9.5058618 -0.167190E-07  0.123E-04    0.62     270.5  T
     SCC iter.                  ...        0 min,  0.002 sec
     gradient                   ...        0 min,  0.000 sec
 * total energy  :    -9.2936732 Eh     change        0.5589305E-04 Eh
   gradient norm :     0.0138159 Eh/α   predicted    -0.1594101E-03 (-385.21%)
   displ. norm   :     0.0723975 α      lambda       -0.3338939E-03
   maximum displ.:     0.0469055 α      in ANC's #4, #5, #8, ...

........................................................................
.............................. CYCLE   37 ..............................
........................................................................
   1     -9.5043068 -0.950431E+01  0.204E-01    0.62       0.0  T
   2     -9.5042402  0.665627E-04  0.128E-01    0.65       1.0  T
   3     -9.5021522  0.208797E-02  0.291E-01    0.50       1.0  T
   4     -9.5041715 -0.201927E-02  0.784E-02    0.65       1.0  T
   5     -9.5043163 -0.144800E-03  0.103E-02    0.62       3.2  T
   6     -9.5043144  0.190635E-05  0.118E-02    0.62       2.8  T
   7     -9.5043156 -0.122115E-05  0.676E-03    0.62       4.9  T
   8     -9.5043168 -0.114022E-05  0.517E-04    0.63      64.5  T
   9     -9.5043168 -0.264418E-09  0.155E-04    0.63     214.6  T
  10     -9.5043168 -0.489759E-10  0.914E-05    0.63     364.7  T
     SCC iter.                  ...        0 min,  0.001 sec
     gradient                   ...        0 min,  0.000 sec
 * total energy  :    -9.2938743 Eh     change       -0.2010532E-03 Eh
   gradient norm :     0.0045155 Eh/α   predicted    -0.1678225E-03 ( -16.53%)
   displ. norm   :     0.0752154 α      lambda       -0.1006603E-03
   maximum displ.:     0.0384200 α      in ANC's #6, #5, #15, ...

........................................................................
.............................. CYCLE   38 ..............................
........................................................................
   1     -9.5046577 -0.950466E+01  0.171E-01    0.64       0.0  T
   2     -9.5042091  0.448581E-03  0.183E-01    0.72       1.0  T
   3     -9.5042037  0.542018E-05  0.153E-01    0.60       1.0  T
   4     -9.5042151 -0.114310E-04  0.145E-01    0.71       1.0  T
   5     -9.5047202 -0.505009E-03  0.164E-02    0.66       2.0  T
   6     -9.5047246 -0.444522E-05  0.644E-03    0.66       5.2  T
   7     -9.5047242  0.390932E-06  0.428E-03    0.65       7.8  T
   8     -9.5047247 -0.445487E-06  0.691E-04    0.66      48.2  T
   9     -9.5047247 -0.612689E-08  0.120E-04    0.66     278.9  T
     SCC iter.                  ...        0 min,  0.001 sec
     gradient                   ...        0 min,  0.000 sec
 * total energy  :    -9.2939234 Eh     change       -0.4913498E-04 Eh
   gradient norm :     0.0037158 Eh/α   predicted    -0.5061506E-04 (   3.01%)
   displ. norm   :     0.0788810 α      lambda       -0.6632101E-04
   maximum displ.:     0.0326015 α      in ANC's #9, #3, #2, ...

........................................................................
.............................. CYCLE   39 ..............................
........................................................................
   1     -9.5039494 -0.950395E+01  0.198E-01    0.64       0.0  T
   2     -9.5035684  0.381070E-03  0.185E-01    0.71       1.0  T
   3     -9.5029722  0.596176E-03  0.202E-01    0.57       1.0  T
   4     -9.5034991 -0.526938E-03  0.143E-01    0.70       1.0  T
   5     -9.5039838 -0.484641E-03  0.249E-02    0.66       1.3  T
   6     -9.5039951 -0.113558E-04  0.121E-02    0.66       2.8  T
   7     -9.5039957 -0.597532E-06  0.478E-03    0.65       7.0  T
   8     -9.5039963 -0.622765E-06  0.142E-03    0.66      23.4  T
   9     -9.5039964 -0.392358E-07  0.116E-04    0.66     287.8  T
  10     -9.5039964 -0.266409E-09  0.391E-05    0.66     853.5  T
     SCC iter.                  ...        0 min,  0.001 sec
     gradient                   ...        0 min,  0.000 sec
 * total energy  :    -9.2939697 Eh     change       -0.4629373E-04 Eh
   gradient norm :     0.0042191 Eh/α   predicted    -0.3336868E-04 ( -27.92%)
   displ. norm   :     0.1047788 α      lambda       -0.8635396E-04
[...]
   8     -9.6481970 -0.370215E-08  0.165E-04    2.59     202.0  T
     SCC iter.                  ...        0 min,  0.001 sec
     gradient                   ...        0 min,  0.001 sec
 * total energy  :    -9.4417495 Eh     change       -0.5799588E-05 Eh
   gradient norm :     0.0012698 Eh/α   predicted    -0.5457519E-05 (  -5.90%)
   displ. norm   :     0.1077603 α      lambda       -0.8332368E-05
   maximum displ.:     0.0880067 α      in ANC's #2, #4, #1, ...
 * RMSD in coord.:     0.8291033 α      energy gain  -0.1412407E-01 Eh

generating ANC from model Hessian ...
Using Lindh-Hessian (1995)
 Shifting diagonal of input Hessian by    1.0016694486466858E-002
 Lowest  eigenvalues of input Hessian
    0.010000    0.000000    0.000000    0.000000    0.000000    0.000000
    0.000000    0.010373    0.010481    0.011829    0.013219    0.029671
    0.044408    0.068428    0.080638    0.115469    0.181122    0.205255
 Highest eigenvalues
    0.537325    0.764044    1.073932    1.136399    1.341299    2.142468


........................................................................
.............................. CYCLE  151 ..............................
........................................................................
   1     -9.6475138 -0.964751E+01  0.122E-01    2.59       0.0  T
   2     -9.6475128  0.942002E-06  0.796E-02    2.59       1.0  T
   3     -9.6474150  0.978036E-04  0.734E-02    2.62       1.0  T
   4     -9.6475118 -0.967877E-04  0.182E-02    2.59       1.8  T
   5     -9.6475151 -0.325929E-05  0.952E-03    2.59       3.5  T
   6     -9.6475151 -0.671080E-07  0.519E-03    2.59       6.4  T
   7     -9.6475153 -0.147848E-06  0.206E-03    2.59      16.2  T
   8     -9.6475153  0.119815E-09  0.741E-04    2.59      45.0  T
   9     -9.6475153 -0.205805E-08  0.256E-04    2.59     130.2  T
     SCC iter.                  ...        0 min,  0.002 sec
     gradient                   ...        0 min,  0.001 sec
 * total energy  :    -9.4417548 Eh     change       -0.5257187E-05 Eh
   gradient norm :     0.0012877 Eh/α   predicted     0.0000000E+00 (-100.00%)
   displ. norm   :     0.0456877 α      lambda       -0.1429449E-04
   maximum displ.:     0.0298534 α      in ANC's #4, #3, #5, ...

........................................................................
.............................. CYCLE  152 ..............................
........................................................................
   1     -9.6479216 -0.964792E+01  0.898E-02    2.59       0.0  T
   2     -9.6479215  0.864071E-07  0.542E-02    2.59       1.0  T
   3     -9.6479117  0.977527E-05  0.239E-02    2.58       1.4  T
   4     -9.6479215 -0.973598E-05  0.479E-03    2.59       7.0  T
   5     -9.6479217 -0.254748E-06  0.224E-03    2.59      14.9  T
   6     -9.6479217  0.511304E-08  0.161E-03    2.59      20.7  T
   7     -9.6479217 -0.121294E-07  0.574E-04    2.59      58.1  T
   8     -9.6479217 -0.936179E-09  0.185E-04    2.59     180.5  T
     SCC iter.                  ...        0 min,  0.001 sec
     gradient                   ...        0 min,  0.001 sec
 * total energy  :    -9.4417675 Eh     change       -0.1274623E-04 Eh
   gradient norm :     0.0003760 Eh/α   predicted    -0.7154196E-05 ( -43.87%)
   displ. norm   :     0.0337312 α      lambda       -0.4407080E-05
   maximum displ.:     0.0216462 α      in ANC's #5, #3, #2, ...

........................................................................
.............................. CYCLE  153 ..............................
........................................................................
   1     -9.6478866 -0.964789E+01  0.453E-02    2.59       0.0  T
   2     -9.6478867 -0.405710E-07  0.275E-02    2.59       1.2  T
   3     -9.6478859  0.726576E-06  0.769E-03    2.59       4.3  T
   4     -9.6478865 -0.573619E-06  0.417E-03    2.59       8.0  T
   5     -9.6478867 -0.172640E-06  0.217E-03    2.59      15.3  T
   6     -9.6478867 -0.119466E-07  0.115E-03    2.59      28.9  T
   7     -9.6478867 -0.767614E-08  0.552E-04    2.59      60.4  T
   8     -9.6478867 -0.520359E-09  0.174E-04    2.59     191.2  T
     SCC iter.                  ...        0 min,  0.002 sec
     gradient                   ...        0 min,  0.000 sec
 * total energy  :    -9.4417720 Eh     change       -0.4470650E-05 Eh
   gradient norm :     0.0003252 Eh/α   predicted    -0.2202759E-05 ( -50.73%)
   displ. norm   :     0.0385568 α      lambda       -0.3421083E-05
   maximum displ.:     0.0246149 α      in ANC's #5, #3, #1, ...

   *** GEOMETRY OPTIMIZATION CONVERGED AFTER 153 ITERATIONS ***

------------------------------------------------------------------------
 total energy gain   :        -0.6845317 Eh     -429.5501 kcal/mol
 total RMSD          :         3.1472118 a0        1.6654 Å
 total power (kW/mol):       -11.7466524 (step)-3736.1505 (real)
------------------------------------------------------------------------

 ANCopt (total)                0 d,  0 h,  0 min,  0.481 sec
 optimizer setup                ...        0 min,  0.000 sec (  0.005%)
 model hessian                  ...        0 min,  0.001 sec (  0.181%)
 ANC generation                 ...        0 min,  0.000 sec (  0.074%)
 coordinate transformation      ...        0 min,  0.000 sec (  0.083%)
 single point calculation       ...        0 min,  0.466 sec ( 96.830%)
 optimization log               ...        0 min,  0.004 sec (  0.819%)
 hessian update                 ...        0 min,  0.005 sec (  1.008%)
 rational function              ...        0 min,  0.002 sec (  0.483%)

================
 final structure:
================
9
 xtb: 6.5.1 (conda-forge)
Be           1.60170055379893        0.21068179950728        0.99745463947943
C            2.19282062193672        1.03261316247444        2.57637382191934
C            0.96635089643653        0.39606047919114        2.70811595046381
C            0.16584475242614       -0.26741155922347        1.98497440127053
H           -0.77900199000025       -0.72518544188927        2.17737144010953
H            2.16999293983489        2.11148370497288        2.68839285356344
H            3.00073195559580        0.61005022393624        3.16423855402131
H            0.36009843257047        0.43153632682769        4.73181786598590
H            0.17746183706551        0.46815530432146        5.50326047309668

 Bond Distances (Angstroems)
 ---------------------------
Be1-C2=1.8756        Be1-C3=1.8342        Be1-C4=1.8071        C2-Be1=1.8756        C2-C3=1.3881         C2-H6=1.0849         
C2-H7=1.0848         C3-Be1=1.8342        C3-C2=1.3881         C3-C4=1.2665         C4-Be1=1.8071        C4-C3=1.2665         
C4-H5=1.0674         H5-C4=1.0674         H6-C2=1.0849         H7-C2=1.0848         H8-H9=0.7936         H9-H8=0.7936         
 H  H  Rav=0.7936 sigma=0.0000  Rmin=0.7936  Rmax=0.7936     1
 C  H  Rav=1.0790 sigma=0.0082  Rmin=1.0674  Rmax=1.0849     3
 C  Be Rav=1.8390 sigma=0.0282  Rmin=1.8071  Rmax=1.8756     3
 C  C  Rav=1.3273 sigma=0.0608  Rmin=1.2665  Rmax=1.3881     2

 selected bond angles (degree)
 --------------------
C3-Be1-C2= 43.93               C4-Be1-C2= 84.63               C4-Be1-C3= 40.70               C3-C2-Be1= 66.45               
H6-C2-Be1=121.07               H6-C2-C3=115.32                H7-C2-Be1=121.34               H7-C2-C3=115.34                
H7-C2-H6=110.31                C2-C3-Be1= 69.62               C4-C3-Be1= 68.50               C4-C3-C2=138.12                
C3-C4-Be1= 70.80               H5-C4-Be1=156.25               H5-C4-C3=132.94                

 selected dihedral angles (degree)
 ---------------------------------
C3-C2-Be1-C4=  0.16           H6-C2-Be1-C3=253.62           H6-C2-Be1-C4=253.77           H7-C2-Be1-C3=106.33           
H7-C2-Be1-C4=106.49           C2-C3-Be1-C4=180.24           C4-C3-Be1-C2=179.76           Be1-C3-C2-H6=114.62           
Be1-C3-C2-H7=245.07           C4-C3-C2-Be1=359.67           C4-C3-C2-H6=114.29            C4-C3-C2-H7=244.74            
C3-C4-Be1-C2=359.83           H5-C4-Be1-C2=179.90           H5-C4-Be1-C3=180.07           Be1-C4-C3-C2=  0.33           
H5-C4-C3-Be1=179.96           H5-C4-C3-C2=180.29            

 CMA Distance (Angstroems)
 ---------------------------
R(CMA):  1.6686
           -------------------------------------------------
          |                Final Singlepoint                |
           -------------------------------------------------

          ...................................................
          :                      SETUP                      :
          :.................................................:
          :  # basis functions                  21          :
          :  # atomic orbitals                  21          :
          :  # shells                           13          :
          :  # electrons                        19          :
          :  max. iterations                   250          :
          :  Hamiltonian                  GFN2-xTB          :
          :  restarted?                      false          :
          :  GBSA solvation                  false          :
          :  PC potential                    false          :
          :  electronic temp.          300.0000000     K    :
          :  accuracy                    1.0000000          :
          :  -> integral cutoff          0.2500000E+02      :
          :  -> integral neglect         0.1000000E-07      :
          :  -> SCF convergence          0.1000000E-05 Eh   :
          :  -> wf. convergence          0.1000000E-03 e    :
          :  Broyden damping             0.4000000          :
          ...................................................

 iter      E             dE          RMSdq      gap      omega  full diag
   1     -9.6478867 -0.964789E+01  0.486E-05    2.59       0.0  T
   2     -9.6478867  0.301270E-11  0.344E-05    2.59     968.7  T
   3     -9.6478867  0.388702E-10  0.518E-05    2.59     643.6  T

   *** convergence criteria satisfied after 3 iterations ***

         #    Occupation            Energy/Eh            Energy/eV
      -------------------------------------------------------------
         1        2.0000           -0.5999419             -16.3252
       ...           ...                  ...                  ...
         4        2.0000           -0.4722330             -12.8501
         5        2.0000           -0.4681787             -12.7398
         6        2.0000           -0.4414458             -12.0124
         7        2.0000           -0.4269724             -11.6185
         8        2.0000           -0.3821574             -10.3990
         9        2.0000           -0.3535959              -9.6218
        10        1.0000           -0.2746015              -7.4723 (HOMO)
        11                         -0.1794194              -4.8822 (LUMO)
        12                         -0.1693105              -4.6072
        13                         -0.1394528              -3.7947
        14                          0.0157492               0.4286
        15                          0.1237217               3.3666
       ...                                ...                  ...
        21                          0.8861936              24.1146
      -------------------------------------------------------------
                  HL-Gap            0.0951821 Eh            2.5900 eV
             Fermi-level           -0.2705545 Eh           -7.3622 eV

 SCC (total)                   0 d,  0 h,  0 min,  0.001 sec
 SCC setup                      ...        0 min,  0.000 sec (  6.465%)
 Dispersion                     ...        0 min,  0.000 sec ( 13.521%)
 classical contributions        ...        0 min,  0.000 sec (  2.202%)
 integral evaluation            ...        0 min,  0.000 sec ( 12.219%)
 iterations                     ...        0 min,  0.000 sec ( 31.684%)
 molecular gradient             ...        0 min,  0.000 sec ( 29.008%)
 printout                       ...        0 min,  0.000 sec (  3.386%)

         :::::::::::::::::::::::::::::::::::::::::::::::::::::
         ::                     SUMMARY                     ::
         :::::::::::::::::::::::::::::::::::::::::::::::::::::
         :: total energy              -9.441772013920 Eh    ::
         :: gradient norm              0.000325507918 Eh/a0 ::
         :: HOMO-LUMO gap              2.590036342860 eV    ::
         ::.................................................::
         :: SCC energy                -9.647886705034 Eh    ::
         :: -> isotropic ES           -0.028466416286 Eh    ::
         :: -> anisotropic ES          0.004950863933 Eh    ::
         :: -> anisotropic XC          0.005306335110 Eh    ::
         :: -> dispersion             -0.003531142938 Eh    ::
         :: repulsion energy           0.206112216256 Eh    ::
         :: add. restraining           0.000000000000 Eh    ::
         :: total charge              -0.000000000000 e     ::
         :::::::::::::::::::::::::::::::::::::::::::::::::::::

           -------------------------------------------------
          |                Property Printout                |
           -------------------------------------------------

    * Orbital Energies and Occupations

         #    Occupation            Energy/Eh            Energy/eV
      -------------------------------------------------------------
         1        2.0000           -0.5999419             -16.3252
         2        2.0000           -0.5630109             -15.3203
         3        2.0000           -0.4997760             -13.5996
         4        2.0000           -0.4722330             -12.8501
         5        2.0000           -0.4681787             -12.7398
         6        2.0000           -0.4414458             -12.0124
         7        2.0000           -0.4269724             -11.6185
         8        2.0000           -0.3821574             -10.3990
         9        2.0000           -0.3535959              -9.6218
        10        1.0000           -0.2746015              -7.4723 (HOMO)
        11                         -0.1794194              -4.8822 (LUMO)
        12                         -0.1693105              -4.6072
        13                         -0.1394528              -3.7947
        14                          0.0157492               0.4286
        15                          0.1237217               3.3666
        16                          0.1541588               4.1949
        17                          0.2493835               6.7861
        18                          0.2834562               7.7132
        19                          0.3513718               9.5613
        20                          0.4792526              13.0411
        21                          0.8861936              24.1146
      -------------------------------------------------------------
                  HL-Gap            0.0951821 Eh            2.5900 eV
             Fermi-level           -0.2705545 Eh           -7.3622 eV

     #   Z          covCN         q      C6AA      α(0)
     1   4 Be       2.463     0.426    14.407     8.762
     2   6 C        3.648    -0.181    24.422     7.100
     3   6 C        2.784    -0.066    29.624     8.915
     4   6 C        2.741    -0.196    33.144     9.426
     5   1 H        0.927     0.023     2.692     2.566
     6   1 H        0.925     0.003     3.013     2.715
     7   1 H        0.925     0.003     3.011     2.713
     8   1 H        0.756     0.005     3.076     2.766
     9   1 H        0.756    -0.016     3.461     2.934

 Mol. C6AA /au·bohr⁶  :        796.491789
 Mol. C8AA /au·bohr⁸  :      19515.053889
 Mol. α(0) /au        :         47.898168


Wiberg/Mayer (AO) data.
largest (>0.10) Wiberg bond orders for each atom

 ---------------------------------------------------------------------------
     #   Z sym  total        # sym  WBO       # sym  WBO       # sym  WBO
 ---------------------------------------------------------------------------
     1   4 Be   1.139 --     4 C    0.538     2 C    0.502     3 C    0.107
     2   6 C    3.916 --     3 C    1.359     7 H    0.966     6 H    0.966
                             1 Be   0.502
     3   6 C    3.760 --     4 C    2.234     2 C    1.359     1 Be   0.107
     4   6 C    3.912 --     3 C    2.234     5 H    0.967     1 Be   0.538
     5   1 H    0.999 --     4 C    0.967
     6   1 H    1.000 --     2 C    0.966
     7   1 H    1.000 --     2 C    0.966
     8   1 H    1.000 --     9 H    0.959
     9   1 H    0.988 --     8 H    0.959
 ---------------------------------------------------------------------------

Topologies differ in total number of bonds
Writing topology from bond orders to xtbtopo.mol

molecular dipole:
                 x           y           z       tot (Debye)
 q only:        0.348      -0.162      -1.148
   full:       -0.007       0.058       0.186       0.495
molecular quadrupole (traceless):
                xx          xy          yy          xz          yz          zz
 q only:        5.062      -1.358       3.014      -3.128      -2.170      -8.076
  q+dip:        0.628       1.128       0.152       1.699       0.233      -0.780
   full:       -0.810      -0.931       0.865       1.245      -0.305      -0.055

           -------------------------------------------------
          |                Geometry Summary                 |
           -------------------------------------------------

      molecular mass/u    :       50.0840945
   center of mass at/Å    :        1.1847901       0.3746769       2.2903676
  moments of inertia/u·Å² :        0.3949879E+02   0.5022595E+02   0.8638880E+02
rotational constants/cm⁻¹ :        0.4267885E+00   0.3356359E+00   0.1951368E+00

 * 5 selected distances

     #   Z          #   Z                                           value/Å
     2   6 C        3   6 C                                       1.3880863 (max)
     3   6 C        4   6 C                                       1.2664672
     4   6 C        5   1 H                                       1.0673842 (min)
     2   6 C        6   1 H                                       1.0849107
     2   6 C        7   1 H                                       1.0848342

 * 2 distinct bonds (by element types)

   Z      Z             #   av. dist./Å        max./Å        min./Å
   1 H    6 C           3     1.0790431     1.0849107     1.0673842
   6 C    6 C           2     1.3272768     1.3880863     1.2664672


optimized geometry written to: xtbopt.xyz


           -------------------------------------------------
          | TOTAL ENERGY               -9.441772013920 Eh   |
          | GRADIENT NORM               0.000325507918 Eh/α |
Note: The following floating-point exceptions are signalling: IEEE_UNDERFLOW_FLAG
normal termination of xtb
          | HOMO-LUMO GAP               2.590036342860 eV   |
           -------------------------------------------------
########################################################################
[WARNING] Runtime exception occurred
-3- restart_readRestart: Dimension missmatch in restart file.
-2- restart_readRestart: Multiplicity missmatch in restart file.
-1- restart_readRestart: Number of electron missmatch in restart file.
########################################################################

------------------------------------------------------------------------
 * finished run on 2025/06/07 at 03:27:54.952     
------------------------------------------------------------------------
 total:
 * wall-time:     0 d,  0 h,  0 min,  0.498 sec
 *  cpu-time:     0 d,  0 h,  0 min,  6.886 sec
 * ratio c/w:    13.836 speedup
 SCF:
 * wall-time:     0 d,  0 h,  0 min,  0.012 sec
 *  cpu-time:     0 d,  0 h,  0 min,  0.175 sec
 * ratio c/w:    14.474 speedup
 ANC optimizer:
 * wall-time:     0 d,  0 h,  0 min,  0.483 sec
 *  cpu-time:     0 d,  0 h,  0 min,  6.677 sec
 * ratio c/w:    13.831 speedup

