      -----------------------------------------------------------      
     |                   =====================                   |     
     |                           x T B                           |     
     |                   =====================                   |     
     |                         S. Grimme                         |     
     |          Mulliken Center for Theoretical Chemistry        |     
     |                    University of Bonn                     |     
      -----------------------------------------------------------      

   * xtb version 6.5.1 (conda-forge) compiled by 'runner@Mac-1657629245115.local' on 2022-07-12

   xtb is free software: you can redistribute it and/or modify it under
   the terms of the GNU Lesser General Public License as published by
   the Free Software Foundation, either version 3 of the License, or
   (at your option) any later version.
   
   xtb is distributed in the hope that it will be useful,
   but WITHOUT ANY WARRANTY; without even the implied warranty of
   MERCHANTABILITY or FITNESS FOR A PARTICULAR PURPOSE.  See the
   GNU Lesser General Public License for more details.
   
   Cite this work as:
   * C. Bannwarth, E. Caldeweyher, S. Ehlert, A. Hansen, P. Pracht,
     J. Seibert, S. Spicher, S. Grimme, WIREs Comput. Mol. Sci., 2020, 11,
     e01493. DOI: 10.1002/wcms.1493
   
   for GFN2-xTB:
   * C. Bannwarth, S. Ehlert and S. Grimme., J. Chem. Theory Comput., 2019,
     15, 1652-1671. DOI: 10.1021/acs.jctc.8b01176
   for GFN1-xTB:
   * S. Grimme, C. Bannwarth, P. Shushkov, J. Chem. Theory Comput., 2017,
     13, 1989-2009. DOI: 10.1021/acs.jctc.7b00118
   for GFN0-xTB:
   * P. Pracht, E. Caldeweyher, S. Ehlert, S. Grimme, ChemRxiv, 2019, preprint.
     DOI: 10.26434/chemrxiv.8326202.v1
   for GFN-FF:
   * S. Spicher and S. Grimme, Angew. Chem. Int. Ed., 2020, 59, 15665-15673.
     DOI: 10.1002/anie.202004239
   
   for ALPB and GBSA implicit solvation:
   * S. Ehlert, M. Stahn, S. Spicher, S. Grimme, J. Chem. Theory Comput.,
     2021, 17, 4250-4261. DOI: 10.1021/acs.jctc.1c00471
   
   for DFT-D4:
   * E. Caldeweyher, C. Bannwarth and S. Grimme, J. Chem. Phys., 2017,
     147, 034112. DOI: 10.1063/1.4993215
   * E. Caldeweyher, S. Ehlert, A. Hansen, H. Neugebauer, S. Spicher,
     C. Bannwarth and S. Grimme, J. Chem. Phys., 2019, 150, 154122.
     DOI: 10.1063/1.5090222
   * E. Caldeweyher, J.-M. Mewes, S. Ehlert and S. Grimme, Phys. Chem. Chem. Phys.
     2020, 22, 8499-8512. DOI: 10.1039/D0CP00502A
   
   for sTDA-xTB:
   * S. Grimme and C. Bannwarth, J. Chem. Phys., 2016, 145, 054103.
     DOI: 10.1063/1.4959605
   
   in the mass-spec context:
   * V. Asgeirsson, C. Bauer and S. Grimme, Chem. Sci., 2017, 8, 4879.
     DOI: 10.1039/c7sc00601b
   * J. Koopman and S. Grimme, ACS Omega 2019, 4, 12, 15120-15133.
     DOI: 10.1021/acsomega.9b02011
   
   for metadynamics refer to:
   * S. Grimme, J. Chem. Theory Comput., 2019, 155, 2847-2862
     DOI: 10.1021/acs.jctc.9b00143
   
   for SPH calculations refer to:
   * S. Spicher and S. Grimme, J. Chem. Theory Comput., 2021, 17, 1701-1714
     DOI: 10.1021/acs.jctc.0c01306
   
   with help from (in alphabetical order)
   P. Atkinson, C. Bannwarth, F. Bohle, G. Brandenburg, E. Caldeweyher
   M. Checinski, S. Dohm, S. Ehlert, S. Ehrlich, I. Gerasimov, C. Hölzer
   A. Katbashev, J. Koopman, C. Lavigne, S. Lehtola, F. März, M. Müller,
   F. Musil, H. Neugebauer, J. Pisarek, C. Plett, P. Pracht, F. Pultar,
   J. Seibert, P. Shushkov, S. Spicher, M. Stahn, M. Steiner, T. Strunk,
   J. Stückrath, T. Rose, and J. Unsleber
   
 * started run on 2025/06/07 at 03:27:54.098     

           -------------------------------------------------
          |                Calculation Setup                |
           -------------------------------------------------

          program call               : xtb BeC3H4.xyz --gfn 2 --opt
          coordinate file            : BeC3H4.xyz
          omp threads                :                    16

   ID    Z sym.   atoms
    1    4 Be     1
    2    6 C      2-4
    3    1 H      5-8

molecular fragmentation (1/2 indicates fragments):
12222222
# atoms in fragment 1/2:     1     7
 fragment masses (1/2) :        9.01       40.06
CMA distance (Bohr)    :   4.684
constraining FC (au)   :  0.0500

           -------------------------------------------------
          |                 G F N 2 - x T B                 |
           -------------------------------------------------

        Reference                      10.1021/acs.jctc.8b01176
      * Hamiltonian:
        H0-scaling (s, p, d)           1.850000    2.230000    2.230000
        zeta-weighting                 0.500000
      * Dispersion:
        s8                             2.700000
        a1                             0.520000
        a2                             5.000000
        s9                             5.000000
      * Repulsion:
        kExp                           1.500000    1.000000
        rExp                           1.000000
      * Coulomb:
        alpha                          2.000000
        third order                    shell-resolved
        anisotropic                    true
        a3                             3.000000
        a5                             4.000000
        cn-shift                       1.200000
        cn-exp                         4.000000
        max-rad                        5.000000


          ...................................................
          :                      SETUP                      :
          :.................................................:
          :  # basis functions                  20          :
          :  # atomic orbitals                  20          :
          :  # shells                           12          :
          :  # electrons                        18          :
          :  max. iterations                   250          :
          :  Hamiltonian                  GFN2-xTB          :
          :  restarted?                      false          :
          :  GBSA solvation                  false          :
          :  PC potential                    false          :
          :  electronic temp.          300.0000000     K    :
          :  accuracy                    1.0000000          :
          :  -> integral cutoff          0.2500000E+02      :
          :  -> integral neglect         0.1000000E-07      :
          :  -> SCF convergence          0.1000000E-05 Eh   :
          :  -> wf. convergence          0.1000000E-03 e    :
          :  Broyden damping             0.4000000          :
          ...................................................

 iter      E             dE          RMSdq      gap      omega  full diag
   1     13.0505532  0.130506E+02  0.269E+01    0.28       0.0  T
   2     -5.3321318 -0.183827E+02  0.158E+01    0.46       1.0  T
   3     -4.6804098  0.651722E+00  0.169E+01    0.50       1.0  T
   4     -6.2790675 -0.159866E+01  0.111E+01    1.08       1.0  T
   5     -5.8289739  0.450094E+00  0.111E+01    0.44       1.0  T
   6     -6.9455522 -0.111658E+01  0.840E+00    0.48       1.0  T
   7     -7.2939439 -0.348392E+00  0.755E+00    0.30       1.0  T
   8     -7.2144973  0.794467E-01  0.634E+00    0.26       1.0  T
   9     -8.0488044 -0.834307E+00  0.763E+00    0.19       1.0  T
  10     -7.5026616  0.546143E+00  0.491E+00    0.22       1.0  T
  11     16.0261666  0.235288E+02  0.295E+01    1.30       1.0  T
  12     15.4997865 -0.526380E+00  0.278E+01    1.20       1.0  T
  13     15.0355641 -0.464222E+00  0.272E+01    1.15       1.0  T
  14     15.7627178  0.727154E+00  0.290E+01    1.22       1.0  T
  15     15.7261014 -0.366164E-01  0.291E+01    1.20       1.0  T
  16     14.6263823 -0.109972E+01  0.279E+01    1.05       1.0  T
  17     -6.5335518 -0.211599E+02  0.114E+01    0.35       1.0  T
  18     -6.7029307 -0.169379E+00  0.105E+01    0.30       1.0  T
  19     -6.6084317  0.944991E-01  0.110E+01    0.34       1.0  T
  20     -6.5982160  0.102157E-01  0.110E+01    0.34       1.0  T
  21     -6.2391511  0.359065E+00  0.138E+01    0.43       1.0  T
  22     -6.4797762 -0.240625E+00  0.119E+01    0.38       1.0  T
  23     -6.4858296 -0.605341E-02  0.119E+01    0.38       1.0  T
  24     -6.7334061 -0.247576E+00  0.991E+00    0.30       1.0  T
  25     -6.8432390 -0.109833E+00  0.897E+00    0.28       1.0  T
  26     -7.4544397 -0.611201E+00  0.524E+00    0.25       1.0  T
  27     -7.7333581 -0.278918E+00  0.497E+00    0.26       1.0  T
  28     -7.8339373 -0.100579E+00  0.495E+00    0.26       1.0  T
  29     -7.8188422  0.150951E-01  0.491E+00    0.26       1.0  T
  30     -8.2226486 -0.403806E+00  0.701E+00    0.15       1.0  T
  31     -8.1690716  0.535770E-01  0.483E+00    0.22       1.0  T
  32     -7.9595817  0.209490E+00  0.472E+00    0.25       1.0  T
  33     -8.0748478 -0.115266E+00  0.452E+00    0.23       1.0  T
  34     -8.1064261 -0.315783E-01  0.444E+00    0.22       1.0  T
  35     -8.1188029 -0.123768E-01  0.447E+00    0.21       1.0  T
  36     -8.2701170 -0.151314E+00  0.522E+00    0.15       1.0  T
  37     -8.2680092  0.210782E-02  0.518E+00    0.14       1.0  T
  38     -7.6421805  0.625829E+00  0.104E+01    0.16       1.0  T
  39     -7.3238394  0.318341E+00  0.110E+01    0.13       1.0  T
  40     -7.7083604 -0.384521E+00  0.104E+01    0.17       1.0  T
  41     -7.4071747  0.301186E+00  0.111E+01    0.14       1.0  T
  42     -7.1305658  0.276609E+00  0.109E+01    0.10       1.0  T
  43     -6.8521892  0.278377E+00  0.104E+01    0.07       1.0  T
  44     -7.8109148 -0.958726E+00  0.987E+00    0.17       1.0  T
  45     -7.6547577  0.156157E+00  0.103E+01    0.16       1.0  T
  46     -7.6623222 -0.756456E-02  0.103E+01    0.16       1.0  T
  47     -1.6356308  0.602669E+01  0.160E+01    0.20       1.0  T
  48     11.1947988  0.128304E+02  0.237E+01    0.67       1.0  T
  49     -7.0256665 -0.182205E+02  0.698E+00    0.24       1.0  T
  50     -8.2682139 -0.124255E+01  0.598E+00    0.19       1.0  T
  51     -8.2145662  0.536476E-01  0.750E+00    0.15       1.0  T
  52     -8.2142789  0.287302E-03  0.514E+00    0.16       1.0  T
  53     -7.8133881  0.400891E+00  0.106E+01    0.20       1.0  T
  54     -7.7172831  0.961050E-01  0.109E+01    0.19       1.0  T
  55     -7.7290870 -0.118039E-01  0.109E+01    0.19       1.0  T
  56     -7.8479912 -0.118904E+00  0.104E+01    0.20       1.0  T
  57     -8.0023786 -0.154387E+00  0.938E+00    0.19       1.0  T
  58     -8.1206113 -0.118233E+00  0.827E+00    0.16       1.0  T
  59     -8.0642867  0.563247E-01  0.886E+00    0.17       1.0  T
  60     -8.1135742 -0.492875E-01  0.840E+00    0.16       1.0  T
  61     -8.1199714 -0.639721E-02  0.842E+00    0.16       1.0  T
  62     -8.1199841 -0.127061E-04  0.849E+00    0.16       1.0  T
  63     -8.1780228 -0.580387E-01  0.775E+00    0.14       1.0  T
  64     -8.1900328 -0.120100E-01  0.760E+00    0.14       1.0  T
  65     -8.1813936  0.863917E-02  0.514E+00    0.15       1.0  T
  66     -7.4074215  0.773972E+00  0.114E+01    0.15       1.0  T
  67     -7.9561333 -0.548712E+00  0.939E+00    0.19       1.0  T
  68     -8.2544600 -0.298327E+00  0.496E+00    0.14       1.0  T
  69     -8.1178864  0.136574E+00  0.782E+00    0.16       1.0  T
  70     -8.2304586 -0.112572E+00  0.627E+00    0.14       1.0  T
  71     -8.2655587 -0.351001E-01  0.517E+00    0.14       1.0  T
  72     -8.2183494  0.472094E-01  0.634E+00    0.14       1.0  T
  73     -8.2127059  0.564349E-02  0.641E+00    0.14       1.0  T
  74     -8.2064674  0.623848E-02  0.645E+00    0.15       1.0  T
  75     -8.0895210  0.116946E+00  0.789E+00    0.17       1.0  T
  76     -7.9655161  0.124005E+00  0.899E+00    0.19       1.0  T
  77     -7.9053077  0.602083E-01  0.938E+00    0.20       1.0  T
  78     -7.8865111  0.187966E-01  0.950E+00    0.20       1.0  T
  79     -7.9707950 -0.842838E-01  0.893E+00    0.19       1.0  T
  80     -8.0837746 -0.112980E+00  0.796E+00    0.17       1.0  T
  81     -8.1188082 -0.350336E-01  0.760E+00    0.17       1.0  T
  82     -8.0832684  0.355398E-01  0.799E+00    0.18       1.0  T
  83     -8.0653129  0.179555E-01  0.818E+00    0.18       1.0  T
  84     -8.0904089 -0.250960E-01  0.795E+00    0.18       1.0  T
  85     -8.1039171 -0.135082E-01  0.782E+00    0.18       1.0  T
  86     -8.0672820  0.366351E-01  0.820E+00    0.19       1.0  T
  87     -8.0662703  0.101165E-02  0.821E+00    0.19       1.0  T
  88     -8.0380644  0.282059E-01  0.849E+00    0.20       1.0  T
  89     -8.0371658  0.898672E-03  0.849E+00    0.20       1.0  T
  90     -8.0681890 -0.310233E-01  0.821E+00    0.19       1.0  T
  91     -8.0534150  0.147741E-01  0.833E+00    0.20       1.0  T
  92     -8.0903895 -0.369745E-01  0.800E+00    0.19       1.0  T
  93     -8.0999494 -0.955991E-02  0.792E+00    0.19       1.0  T
  94     -8.0933869  0.656247E-02  0.798E+00    0.19       1.0  T
  95     -8.0770482  0.163387E-01  0.814E+00    0.19       1.0  T
  96     -8.0715773  0.547094E-02  0.820E+00    0.19       1.0  T
  97     -8.0484387  0.231386E-01  0.843E+00    0.19       1.0  T
  98     -8.0079196  0.405191E-01  0.879E+00    0.19       1.0  T
  99     -7.9801593  0.277602E-01  0.901E+00    0.19       1.0  T
 100     -7.9665082  0.136511E-01  0.911E+00    0.19       1.0  T
 101     -7.9720594 -0.555113E-02  0.907E+00    0.19       1.0  T
 102     -7.9976740 -0.256147E-01  0.889E+00    0.19       1.0  T
 103     -8.0342715 -0.365975E-01  0.859E+00    0.19       1.0  T
 104     -8.0670187 -0.327471E-01  0.828E+00    0.19       1.0  T
 105     -8.0855647 -0.185460E-01  0.806E+00    0.19       1.0  T
 106     -8.1031328 -0.175682E-01  0.778E+00    0.20       1.0  T
 107     -8.1325719 -0.294390E-01  0.730E+00    0.20       1.0  T
 108     -8.1405979 -0.802605E-02  0.705E+00    0.20       1.0  T
 109     -8.1491532 -0.855531E-02  0.677E+00    0.20       1.0  T
 110     -8.1663886 -0.172354E-01  0.641E+00    0.20       1.0  T
 111     -8.1382726  0.281160E-01  0.664E+00    0.20       1.0  T
 112     -8.1500817 -0.118091E-01  0.651E+00    0.19       1.0  T
 113     -8.0874435  0.626382E-01  0.714E+00    0.20       1.0  T
 114     -8.0839686  0.347487E-02  0.720E+00    0.19       1.0  T
 115     -7.9681478  0.115821E+00  0.814E+00    0.20       1.0  T
 116     -7.9847573 -0.166095E-01  0.803E+00    0.20       1.0  T
 117     -7.9446370  0.401204E-01  0.827E+00    0.20       1.0  T
 118     -7.9391925  0.544444E-02  0.831E+00    0.20       1.0  T
 119     -7.9374358  0.175677E-02  0.833E+00    0.20       1.0  T
 120     -7.9021646  0.352712E-01  0.861E+00    0.20       1.0  T
 121     -7.8918490  0.103155E-01  0.872E+00    0.19       1.0  T
 122     -7.8916719  0.177140E-03  0.877E+00    0.18       1.0  T
 123     -7.8813015  0.103704E-01  0.883E+00    0.18       1.0  T
 124     -7.8783479  0.295356E-02  0.884E+00    0.18       1.0  T
 125     -7.8600634  0.182845E-01  0.893E+00    0.18       1.0  T
 126     -7.8612119 -0.114854E-02  0.892E+00    0.18       1.0  T
 127     -7.7645805  0.966314E-01  0.933E+00    0.18       1.0  T
 128     -7.7059303  0.586503E-01  0.956E+00    0.17       1.0  T
 129     -7.7683418 -0.624115E-01  0.931E+00    0.16       1.0  T
 130     -7.7683567 -0.149285E-04  0.933E+00    0.16       1.0  T
 131     -7.9449808 -0.176624E+00  0.861E+00    0.15       1.0  T
 132     -7.8712752  0.737056E-01  0.915E+00    0.15       1.0  T
 133     -8.1681299 -0.296855E+00  0.710E+00    0.11       1.0  T
 134     -8.1587536  0.937631E-02  0.747E+00    0.12       1.0  T
 135     -8.2566280 -0.978745E-01  0.611E+00    0.14       1.0  T
 136     -8.2601981 -0.357006E-02  0.473E+00    0.17       1.0  T
 137     -8.2777113 -0.175133E-01  0.455E+00    0.20       1.0  T
 138     -8.0506283  0.227083E+00  0.654E+00    0.29       1.0  T
 139     -7.9775062  0.731221E-01  0.765E+00    0.25       1.0  T
 140     -8.2549608 -0.277455E+00  0.544E+00    0.18       1.0  T
 141     -8.2458019  0.915893E-02  0.377E+00    0.24       1.0  T
 142     -8.2008981  0.449038E-01  0.426E+00    0.29       1.0  T
 143     -8.2563956 -0.554976E-01  0.390E+00    0.28       1.0  T
 144     -8.2663074 -0.991181E-02  0.348E+00    0.31       1.0  T
 145     -8.2857483 -0.194409E-01  0.259E+00    0.33       1.0  T
 146     -8.2888763 -0.312800E-02  0.312E+00    0.35       1.0  T
 147     -8.2854394  0.343687E-02  0.336E+00    0.38       1.0  T
 148     -8.2851710  0.268467E-03  0.345E+00    0.39       1.0  T
 149     -8.2850355  0.135496E-03  0.347E+00    0.39       1.0  T
 150     -8.2851151 -0.796428E-04  0.346E+00    0.39       1.0  T
 151     -8.2845160  0.599144E-03  0.346E+00    0.38       1.0  T
 152     -8.2892677 -0.475173E-02  0.334E+00    0.39       1.0  T
 153     -8.2911777 -0.190999E-02  0.342E+00    0.41       1.0  T
 154     -8.2907659  0.411749E-03  0.354E+00    0.42       1.0  T
 155     -8.2914143 -0.648366E-03  0.345E+00    0.42       1.0  T
 156     -8.2928067 -0.139243E-02  0.314E+00    0.41       1.0  T
 157     -8.2925687  0.238083E-03  0.288E+00    0.40       1.0  T
 158     -8.2914503  0.111835E-02  0.272E+00    0.39       1.0  T
 159     -8.2902420  0.120832E-02  0.263E+00    0.39       1.0  T
 160     -8.2890246  0.121741E-02  0.258E+00    0.39       1.0  T
 161     -8.2875615  0.146309E-02  0.254E+00    0.38       1.0  T
 162     -8.2846336  0.292793E-02  0.249E+00    0.38       1.0  T
 163     -8.2811291  0.350446E-02  0.248E+00    0.37       1.0  T
 164     -8.2814891 -0.360050E-03  0.251E+00    0.36       1.0  T
 165     -8.2865768 -0.508766E-02  0.256E+00    0.36       1.0  T
 166     -8.2883536 -0.177675E-02  0.259E+00    0.36       1.0  T
 167     -8.2885736 -0.220058E-03  0.258E+00    0.36       1.0  T
 168     -8.2879801  0.593476E-03  0.258E+00    0.36       1.0  T
 169     -8.2863005  0.167969E-02  0.257E+00    0.36       1.0  T
 170     -8.2858291  0.471357E-03  0.257E+00    0.36       1.0  T
 171     -8.2920539 -0.622482E-02  0.264E+00    0.37       1.0  T
 172     -8.2930953 -0.104138E-02  0.268E+00    0.37       1.0  T
 173     -8.2921874  0.907865E-03  0.265E+00    0.37       1.0  T
 174     -8.2916428  0.544677E-03  0.265E+00    0.37       1.0  T
 175     -8.2921168 -0.474049E-03  0.267E+00    0.37       1.0  T
 176     -8.2918887  0.228100E-03  0.266E+00    0.37       1.0  T
 177     -8.2926821 -0.793426E-03  0.265E+00    0.37       1.0  T
 178     -8.2945282 -0.184609E-02  0.265E+00    0.37       1.0  T
 179     -8.2947962 -0.267938E-03  0.246E+00    0.37       1.0  T
 180     -8.2952184 -0.422268E-03  0.213E+00    0.35       1.0  T
 181     -8.2951734  0.450291E-04  0.197E+00    0.35       1.0  T
 182     -8.2882307  0.694267E-02  0.203E+00    0.36       1.0  T
 183     -8.2819089  0.632184E-02  0.210E+00    0.36       1.0  T
 184     -8.2814589  0.449947E-03  0.204E+00    0.36       1.0  T
 185     -8.2896971 -0.823819E-02  0.175E+00    0.34       1.0  T
 186     -8.2898882 -0.191096E-03  0.173E+00    0.34       1.0  T
 187     -8.2899075 -0.192364E-04  0.169E+00    0.33       1.0  T
 188     -8.2890362  0.871267E-03  0.167E+00    0.33       1.0  T
 189     -8.2942817 -0.524555E-02  0.157E+00    0.32       1.0  T
 190     -8.2953763 -0.109450E-02  0.156E+00    0.31       1.0  T
 191     -8.2957851 -0.408805E-03  0.157E+00    0.31       1.0  T
 192     -8.2958684 -0.833159E-04  0.157E+00    0.31       1.0  T
 193     -8.2960200 -0.151625E-03  0.157E+00    0.30       1.0  T
 194     -8.2961347 -0.114668E-03  0.157E+00    0.30       1.0  T
 195     -8.2961609 -0.262366E-04  0.157E+00    0.30       1.0  T
 196     -8.2961583  0.255706E-05  0.157E+00    0.30       1.0  T
 197     -8.2960161  0.142206E-03  0.155E+00    0.31       1.0  T
 198     -8.2956957  0.320484E-03  0.153E+00    0.31       1.0  T
 199     -8.2953492  0.346407E-03  0.152E+00    0.31       1.0  T
 200     -8.2950958  0.253449E-03  0.150E+00    0.31       1.0  T
 201     -8.2949812  0.114596E-03  0.146E+00    0.31       1.0  T
 202     -8.2950001 -0.189095E-04  0.137E+00    0.32       1.0  T
 203     -8.2949892  0.108761E-04  0.125E+00    0.32       1.0  T
 204     -8.2949267  0.625736E-04  0.112E+00    0.32       1.0  T
 205     -8.2949726 -0.459224E-04  0.985E-01    0.33       1.0  T
 206     -8.2952402 -0.267638E-03  0.861E-01    0.33       1.0  T
 207     -8.2956948 -0.454595E-03  0.743E-01    0.33       1.0  T
 208     -8.2962024 -0.507592E-03  0.629E-01    0.34       1.0  T
 209     -8.2966422 -0.439773E-03  0.521E-01    0.34       1.0  T
 210     -8.2969695 -0.327319E-03  0.421E-01    0.34       1.0  T
 211     -8.2971948 -0.225321E-03  0.329E-01    0.35       1.0  T
 212     -8.2973450 -0.150224E-03  0.248E-01    0.35       1.0  T
 213     -8.2974435 -0.984801E-04  0.180E-01    0.35       1.0  T
 214     -8.2975061 -0.625471E-04  0.125E-01    0.36       1.0  T
 215     -8.2975434 -0.372785E-04  0.823E-02    0.36       1.0  T
 216     -8.2975636 -0.202719E-04  0.506E-02    0.36       1.0  T
 217     -8.2975736 -0.995311E-05  0.288E-02    0.36       1.2  T
 218     -8.2975782 -0.465916E-05  0.149E-02    0.36       2.4  T
 219     -8.2975805 -0.222375E-05  0.869E-03    0.36       4.1  T
 220     -8.2975809 -0.423229E-06  0.817E-03    0.36       4.3  T
 221     -8.2975809 -0.249544E-07  0.394E-03    0.36       9.0  T
 222     -8.2975809 -0.822543E-08  0.163E-03    0.36      21.7  T
 223     -8.2975809 -0.149501E-08  0.861E-04    0.36      41.1  T
 224     -8.2975809  0.598721E-10  0.325E-04    0.36     108.6  T

   *** convergence criteria satisfied after 224 iterations ***

         #    Occupation            Energy/Eh            Energy/eV
      -------------------------------------------------------------
         1        2.0000           -0.6392168             -17.3940
       ...           ...                  ...                  ...
         3        2.0000           -0.5099264             -13.8758
         4        2.0000           -0.4946009             -13.4588
         5        2.0000           -0.3964886             -10.7890
         6        2.0000           -0.3518511              -9.5744
         7        2.0000           -0.3397368              -9.2447
         8        2.0000           -0.3302242              -8.9859
         9        1.9982           -0.2953601              -8.0372 (HOMO)
        10        0.0018           -0.2819870              -7.6733 (LUMO)
        11                         -0.2659689              -7.2374
        12                         -0.2624176              -7.1407
        13                         -0.2248883              -6.1195
        14                         -0.1951499              -5.3103
       ...                                ...                  ...
        20                          0.4482706              12.1981
      -------------------------------------------------------------
                  HL-Gap            0.0133731 Eh            0.3639 eV
             Fermi-level           -0.2886736 Eh           -7.8552 eV

 SCC (total)                   0 d,  0 h,  0 min,  0.146 sec
 SCC setup                      ...        0 min,  0.000 sec (  0.050%)
 Dispersion                     ...        0 min,  0.000 sec (  0.077%)
 classical contributions        ...        0 min,  0.000 sec (  0.032%)
 integral evaluation            ...        0 min,  0.000 sec (  0.085%)
 iterations                     ...        0 min,  0.145 sec ( 99.241%)
 molecular gradient             ...        0 min,  0.001 sec (  0.446%)
 printout                       ...        0 min,  0.000 sec (  0.059%)

         :::::::::::::::::::::::::::::::::::::::::::::::::::::
         ::                     SUMMARY                     ::
         :::::::::::::::::::::::::::::::::::::::::::::::::::::
         :: total energy              -8.242876913009 Eh    ::
         :: gradient norm              0.302461304509 Eh/a0 ::
         :: HOMO-LUMO gap              0.363899578884 eV    ::
         ::.................................................::
         :: SCC energy                -8.297580919555 Eh    ::
         :: -> isotropic ES           -0.066429122644 Eh    ::
         :: -> anisotropic ES          0.011227365595 Eh    ::
         :: -> anisotropic XC         -0.002362842335 Eh    ::
         :: -> dispersion             -0.005678384198 Eh    ::
         :: repulsion energy           0.054702566697 Eh    ::
         :: add. restraining           0.000000000000 Eh    ::
         :: total charge              -0.000000000086 e     ::
         :::::::::::::::::::::::::::::::::::::::::::::::::::::

      ----------------------------------------------------------- 
     |                   =====================                   |
     |                        A N C O P T                        |
     |                   =====================                   |
     |               Approximate Normal Coordinate               |
     |                Rational Function Optimizer                |
      ----------------------------------------------------------- 

          ...................................................
          :                      SETUP                      :
          :.................................................:
          :   optimization level            normal          :
          :   max. optcycles                   200          :
          :   ANC micro-cycles                  20          :
          :   degrees of freedom                18          :
          :.................................................:
          :   RF solver                   davidson          :
          :   write xtbopt.log                true          :
          :   linear?                        false          :
          :   energy convergence         0.5000000E-05 Eh   :
          :   grad. convergence          0.1000000E-02 Eh/α :
          :   maximium RF displ.         1.0000000          :
          :   Hlow (freq-cutoff)         0.1000000E-01      :
          :   Hmax (freq-cutoff)         5.0000000          :
          :   S6 in model hess.         20.0000000          :
          ...................................................

generating ANC from model Hessian ...
Using Lindh-Hessian (1995)
 Shifting diagonal of input Hessian by    1.2280976959896561E-002
 Lowest  eigenvalues of input Hessian
    0.010000    0.011700    0.012099    0.000000    0.000000    0.000000
    0.000000    0.000000    0.000000    0.013552    0.021705    0.023331
    0.030349    0.038458    0.041611    0.052692    0.059828    0.095500
 Highest eigenvalues
    0.213737    0.249615    0.259332    0.281600    0.308485    0.344100


........................................................................
.............................. CYCLE    1 ..............................
........................................................................
   1     -8.2975809 -0.829758E+01  0.670E-04    0.36       0.0  T
   2     -8.2975805  0.451549E-06  0.746E-03    0.36       4.7  T
   3     -8.2975809 -0.432817E-06  0.188E-03    0.36      18.8  T
   4     -8.2975809  0.334510E-08  0.189E-03    0.36      18.7  T
   5     -8.2975809 -0.271263E-07  0.245E-04    0.36     144.4  T
   6     -8.2975809 -0.448868E-09  0.104E-04    0.36     339.2  T
     SCC iter.                  ...        0 min,  0.001 sec
     gradient                   ...        0 min,  0.000 sec
 * total energy  :    -8.2428769 Eh     change       -0.3563621E-09 Eh
   gradient norm :     0.3012837 Eh/α   predicted     0.0000000E+00 (-100.00%)
   displ. norm   :     0.8350562 α      lambda       -0.2401708E+00
   maximum displ.:     0.4207385 α      in ANC's #5, #14, #10, ...

........................................................................
.............................. CYCLE    2 ..............................
........................................................................
   1     -8.3973272 -0.839733E+01  0.439E+00    0.85       0.0  T
   2      1.6537312  0.100511E+02  0.201E+01    0.25       1.0  T
   3      1.1579295 -0.495802E+00  0.198E+01    0.25       1.0  T
   4     -1.0077389 -0.216567E+01  0.187E+01    0.35       1.0  T
   5     -7.4377447 -0.643001E+01  0.838E+00    0.12       1.0  T
   6     -8.4457938 -0.100805E+01  0.340E+00    0.67       1.0  T
   7     -8.4110871  0.347066E-01  0.382E+00    0.68       1.0  T
   8     -8.4193885 -0.830135E-02  0.428E+00    0.71       1.0  T
   9     -8.4231830 -0.379449E-02  0.496E+00    0.77       1.0  T
  10     -8.4103759  0.128070E-01  0.581E+00    0.63       1.0  T
  11     -8.4128400 -0.246407E-02  0.685E+00    0.59       1.0  T
  12     -8.3986110  0.142290E-01  0.752E+00    0.58       1.0  T
  13     -8.4061400 -0.752906E-02  0.663E+00    0.61       1.0  T
  14     -8.4202992 -0.141591E-01  0.524E+00    0.65       1.0  T
  15     -8.4437302 -0.234310E-01  0.152E+00    0.70       1.0  T
  16     -8.4484370 -0.470685E-02  0.115E+00    0.70       1.0  T
  17     -8.4540332 -0.559617E-02  0.136E+00    0.69       1.0  T
  18     -8.4584127 -0.437955E-02  0.125E+00    0.68       1.0  T
  19     -8.4631610 -0.474824E-02  0.102E+00    0.66       1.0  T
  20     -8.4640428 -0.881785E-03  0.902E-01    0.66       1.0  T
  21     -8.4655502 -0.150744E-02  0.783E-01    0.65       1.0  T
  22     -8.4657596 -0.209441E-03  0.784E-01    0.65       1.0  T
  23     -8.4663539 -0.594294E-03  0.816E-01    0.65       1.0  T
  24     -8.4666629 -0.309006E-03  0.699E-01    0.65       1.0  T
  25     -8.4668345 -0.171558E-03  0.636E-01    0.65       1.0  T
  26     -8.4671504 -0.315917E-03  0.473E-01    0.65       1.0  T
  27     -8.4673789 -0.228481E-03  0.348E-01    0.65       1.0  T
  28     -8.4675331 -0.154160E-03  0.179E-01    0.65       1.0  T
  29     -8.4675672 -0.341543E-04  0.650E-02    0.65       1.0  T
  30     -8.4675697 -0.249178E-05  0.200E-02    0.65       1.8  T
  31     -8.4675698 -0.689945E-07  0.778E-03    0.65       4.5  T
  32     -8.4675698 -0.187183E-07  0.376E-03    0.65       9.4  T
  33     -8.4675698 -0.360028E-08  0.723E-04    0.65      48.9  T
  34     -8.4675698  0.673268E-09  0.714E-04    0.65      49.5  T
     SCC iter.                  ...        0 min,  0.005 sec
     gradient                   ...        0 min,  0.001 sec
 * total energy  :    -8.4246828 Eh     change       -0.1818059E+00 Eh
   gradient norm :     0.2375214 Eh/α   predicted    -0.2038232E+00 (  12.11%)
   displ. norm   :     0.9258316 α      lambda       -0.2160139E+00
   maximum displ.:     0.4967888 α      in ANC's #15, #10, #14, ...

........................................................................
.............................. CYCLE    3 ..............................
........................................................................
   1     -8.6471643 -0.864716E+01  0.423E+00    0.73       0.0  T
   2     -2.4618500  0.618531E+01  0.144E+01    0.12       1.0  T
   3     -8.3893963 -0.592755E+01  0.409E+00    1.38       1.0  T
   4     -8.6476086 -0.258212E+00  0.277E+00    0.65       1.0  T
   5     -8.5599414  0.876672E-01  0.236E+00    0.84       1.0  T
   6     -8.5930888 -0.331474E-01  0.205E+00    0.82       1.0  T
   7     -8.6281104 -0.350215E-01  0.172E+00    0.70       1.0  T
   8     -8.6790821 -0.509718E-01  0.117E+00    0.48       1.0  T
   9     -8.6794409 -0.358766E-03  0.120E+00    0.47       1.0  T
  10     -8.6829667 -0.352577E-02  0.972E-01    0.48       1.0  T
  11     -8.6976984 -0.147317E-01  0.414E-01    0.42       1.0  T
  12     -8.6959045  0.179388E-02  0.479E-01    0.44       1.0  T
  13     -8.6962381 -0.333603E-03  0.453E-01    0.43       1.0  T
  14     -8.6960618  0.176364E-03  0.482E-01    0.43       1.0  T
  15     -8.6980965 -0.203471E-02  0.266E-01    0.42       1.0  T
  16     -8.6981388 -0.422793E-04  0.799E-02    0.43       1.0  T
  17     -8.6982194 -0.806882E-04  0.378E-02    0.43       1.0  T
  18     -8.6982222 -0.271282E-05  0.160E-02    0.43       2.2  T
  19     -8.6982263 -0.414407E-05  0.774E-03    0.43       4.6  T
  20     -8.6982263 -0.439556E-07  0.292E-03    0.43      12.1  T
  21     -8.6982264 -0.186967E-07  0.888E-04    0.43      39.8  T
  22     -8.6982264 -0.780940E-09  0.180E-04    0.43     196.2  T
     SCC iter.                  ...        0 min,  0.003 sec
     gradient                   ...        0 min,  0.000 sec
 * total energy  :    -8.5855008 Eh     change       -0.1608180E+00 Eh
   gradient norm :     0.1267853 Eh/α   predicted    -0.2005866E+00 (  24.73%)
   displ. norm   :     0.8361194 α      lambda       -0.1008432E+00
   maximum displ.:     0.6326557 α      in ANC's #10, #6, #2, ...

........................................................................
.............................. CYCLE    4 ..............................
........................................................................
   1     -8.7699769 -0.876998E+01  0.326E+00    2.00       0.0  T
   2     -8.3621751  0.407802E+00  0.509E+00    1.07       1.0  T
   3     -8.6717149 -0.309540E+00  0.275E+00    1.99       1.0  T
   4     -8.7600212 -0.883063E-01  0.168E+00    1.43       1.0  T
   5     -8.7842661 -0.242450E-01  0.617E-01    1.70       1.0  T
   6     -8.7871461 -0.288002E-02  0.446E-01    1.68       1.0  T
   7     -8.7875838 -0.437672E-03  0.301E-01    1.64       1.0  T
   8     -8.7876974 -0.113587E-03  0.149E-01    1.68       1.0  T
   9     -8.7878075 -0.110077E-03  0.117E-01    1.67       1.0  T
  10     -8.7879668 -0.159274E-03  0.401E-02    1.66       1.0  T
  11     -8.7879816 -0.148392E-04  0.188E-02    1.66       1.9  T
  12     -8.7879855 -0.390819E-05  0.726E-03    1.65       4.9  T
  13     -8.7879862 -0.678409E-06  0.172E-03    1.65      20.6  T
  14     -8.7879862 -0.203944E-07  0.951E-04    1.65      37.2  T
  15     -8.7879862 -0.124939E-07  0.807E-05    1.65     438.1  T
     SCC iter.                  ...        0 min,  0.002 sec
     gradient                   ...        0 min,  0.001 sec
 * total energy  :    -8.5889538 Eh     change       -0.3452920E-02 Eh
   gradient norm :     0.3707390 Eh/α   predicted    -0.8567113E-01 (2381.12%)
   displ. norm   :     0.5155311 α      lambda       -0.1678571E+00
   maximum displ.:     0.3704515 α      in ANC's #10, #8, #9, ...

........................................................................
.............................. CYCLE    5 ..............................
........................................................................
   1     -8.7056757 -0.870568E+01  0.367E+00    0.70       0.0  T
   2     -8.2953234  0.410352E+00  0.460E+00    2.27       1.0  T
   3     -6.8247774  0.147055E+01  0.103E+01    0.75       1.0  T
   4     -6.7841156  0.406618E-01  0.104E+01    0.75       1.0  T
   5     -8.7313947 -0.194728E+01  0.229E+00    1.10       1.0  T
   6     -8.7294577  0.193697E-02  0.230E+00    1.11       1.0  T
   7     -8.7524507 -0.229931E-01  0.289E+00    0.96       1.0  T
   8     -8.4917284  0.260722E+00  0.963E+00    0.67       1.0  T
   9     -8.7380089 -0.246280E+00  0.373E+00    0.81       1.0  T
  10     -8.7290153  0.899366E-02  0.167E+00    1.00       1.0  T
  11     -8.7007905  0.282248E-01  0.310E+00    1.06       1.0  T
  12     -8.6983016  0.248888E-02  0.318E+00    1.07       1.0  T
  13     -8.7046858 -0.638422E-02  0.254E+00    1.07       1.0  T
  14     -8.7479619 -0.432761E-01  0.712E-01    0.94       1.0  T
  15     -8.7527218 -0.475996E-02  0.584E-01    0.91       1.0  T
  16     -8.7517749  0.946958E-03  0.518E-01    0.91       1.0  T
  17     -8.7532277 -0.145285E-02  0.428E-01    0.90       1.0  T
  18     -8.7560397 -0.281200E-02  0.217E-01    0.86       1.0  T
  19     -8.7566239 -0.584199E-03  0.102E-01    0.85       1.0  T
  20     -8.7566817 -0.577323E-04  0.165E-02    0.84       2.1  T
  21     -8.7566820 -0.277682E-06  0.902E-03    0.84       3.9  T
  22     -8.7566818  0.108502E-06  0.833E-03    0.84       4.2  T
  23     -8.7566828 -0.932355E-06  0.995E-04    0.84      35.5  T
  24     -8.7566828 -0.298808E-08  0.323E-04    0.84     109.4  T
     SCC iter.                  ...        0 min,  0.003 sec
     gradient                   ...        0 min,  0.000 sec
 * total energy  :    -8.6458407 Eh     change       -0.5688691E-01 Eh
   gradient norm :     0.0585044 Eh/α   predicted    -0.1062344E+00 (  86.75%)
   displ. norm   :     0.6671276 α      lambda       -0.2517220E-01
   maximum displ.:     0.4956344 α      in ANC's #6, #4, #3, ...

........................................................................
.............................. CYCLE    6 ..............................
........................................................................
   1     -8.7585706 -0.875857E+01  0.190E+00    0.99       0.0  T
   2     -6.3759166  0.238265E+01  0.108E+01    0.60       1.0  T
   3     -8.7568630 -0.238095E+01  0.167E+00    1.01       1.0  T
   4     -8.7688942 -0.120312E-01  0.104E+00    0.91       1.0  T
   5     -8.7761378 -0.724360E-02  0.735E-01    0.85       1.0  T
   6     -8.7776421 -0.150432E-02  0.423E-01    0.85       1.0  T
   7     -8.7793630 -0.172093E-02  0.243E-01    0.81       1.0  T
   8     -8.7801105 -0.747495E-03  0.121E-01    0.80       1.0  T
   9     -8.7801147 -0.411260E-05  0.119E-01    0.80       1.0  T
  10     -8.7800747  0.399630E-04  0.102E-01    0.80       1.0  T
  11     -8.7802395 -0.164788E-03  0.409E-02    0.79       1.0  T
  12     -8.7802593 -0.198138E-04  0.217E-02    0.79       1.6  T
  13     -8.7802656 -0.629031E-05  0.516E-03    0.79       6.8  T
  14     -8.7802659 -0.345425E-06  0.133E-03    0.79      26.6  T
  15     -8.7802659  0.119111E-07  0.101E-03    0.79      34.8  T
  16     -8.7802659 -0.188778E-07  0.137E-04    0.79     258.4  T
  17     -8.7802659 -0.275149E-09  0.204E-05    0.79    1731.4  T
     SCC iter.                  ...        0 min,  0.003 sec
     gradient                   ...        0 min,  0.001 sec
 * total energy  :    -8.6633547 Eh     change       -0.1751405E-01 Eh
   gradient norm :     0.0550983 Eh/α   predicted    -0.1818766E-01 (   3.85%)
   displ. norm   :     0.6295390 α      lambda       -0.2138080E-01
   maximum displ.:     0.3389156 α      in ANC's #6, #7, #17, ...

........................................................................
.............................. CYCLE    7 ..............................
........................................................................
   1     -8.8068246 -0.880682E+01  0.192E+00    0.96       0.0  T
   2     -8.5747628  0.232062E+00  0.326E+00    0.54       1.0  T
   3     -8.6450201 -0.702573E-01  0.265E+00    1.86       1.0  T
   4     -8.8078592 -0.162839E+00  0.106E+00    0.97       1.0  T
   5     -8.7998375  0.802169E-02  0.891E-01    1.08       1.0  T
   6     -8.8084777 -0.864018E-02  0.655E-01    0.95       1.0  T
   7     -8.8092734 -0.795769E-03  0.473E-01    0.98       1.0  T
   8     -8.8105108 -0.123738E-02  0.367E-01    0.97       1.0  T
   9     -8.8115933 -0.108250E-02  0.251E-01    0.96       1.0  T
  10     -8.8123185 -0.725205E-03  0.844E-02    0.94       1.0  T
  11     -8.8123972 -0.787130E-04  0.445E-02    0.94       1.0  T
  12     -8.8124235 -0.262649E-04  0.275E-03    0.93      12.9  T
  13     -8.8124234  0.718839E-07  0.239E-03    0.93      14.8  T
  14     -8.8124235 -0.915469E-07  0.217E-04    0.93     162.9  T
  15     -8.8124235  0.638423E-10  0.244E-04    0.93     145.1  T
     SCC iter.                  ...        0 min,  0.003 sec
     gradient                   ...        0 min,  0.000 sec
 * total energy  :    -8.6774045 Eh     change       -0.1404982E-01 Eh
   gradient norm :     0.0634607 Eh/α   predicted    -0.1492721E-01 (   6.24%)
   displ. norm   :     0.6932330 α      lambda       -0.2424289E-01
   maximum displ.:     0.2958081 α      in ANC's #12, #3, #4, ...

........................................................................
.............................. CYCLE    8 ..............................
........................................................................
   1     -8.8208971 -0.882090E+01  0.251E+00    1.11       0.0  T
   2     -7.8085914  0.101231E+01  0.822E+00    0.67       1.0  T
   3     -8.8025607 -0.993969E+00  0.204E+00    1.19       1.0  T
   4     -8.7924743  0.100864E-01  0.185E+00    0.72       1.0  T
   5     -8.8172637 -0.247894E-01  0.112E+00    1.09       1.0  T
   6     -8.8376453 -0.203816E-01  0.292E-01    0.93       1.0  T
   7     -8.8380971 -0.451759E-03  0.996E-02    0.91       1.0  T
   8     -8.8380211  0.760343E-04  0.970E-02    0.91       1.0  T
   9     -8.8380108  0.102781E-04  0.726E-02    0.92       1.0  T
  10     -8.8381117 -0.100883E-03  0.143E-02    0.91       2.5  T
  11     -8.8381103  0.132167E-05  0.108E-02    0.91       3.3  T
  12     -8.8381120 -0.169682E-05  0.551E-03    0.91       6.4  T
  13     -8.8381120 -0.267449E-08  0.485E-03    0.91       7.3  T
  14     -8.8381122 -0.115016E-06  0.377E-03    0.91       9.4  T
  15     -8.8381122 -0.589037E-07  0.245E-03    0.91      14.5  T
  16     -8.8381123 -0.461593E-07  0.242E-04    0.91     146.3  T
  17     -8.8381123 -0.655699E-09  0.636E-05    0.91     556.0  T
     SCC iter.                  ...        0 min,  0.003 sec
     gradient                   ...        0 min,  0.000 sec
 * total energy  :    -8.6962548 Eh     change       -0.1885023E-01 Eh
   gradient norm :     0.0426473 Eh/α   predicted    -0.1794665E-01 (  -4.79%)
   displ. norm   :     0.8657941 α      lambda       -0.2842506E-01
   maximum displ.:     0.3473965 α      in ANC's #4, #18, #2, ...

........................................................................
.............................. CYCLE    9 ..............................
........................................................................
   1     -8.8223730 -0.882237E+01  0.250E+00    1.01       0.0  T
   2     -8.7834983  0.388747E-01  0.214E+00    0.77       1.0  T
   3     -8.6394245  0.144074E+00  0.273E+00    1.88       1.0  T
   4     -8.6300684  0.935607E-02  0.339E+00    0.66       1.0  T
   5     -8.8032495 -0.173181E+00  0.116E+00    0.80       1.0  T
   6     -8.8283270 -0.250775E-01  0.489E-01    0.94       1.0  T
   7     -8.8261543  0.217268E-02  0.588E-01    1.00       1.0  T
   8     -8.8255254  0.628932E-03  0.544E-01    1.01       1.0  T
   9     -8.8281515 -0.262608E-02  0.257E-01    0.97       1.0  T
  10     -8.8284594 -0.307933E-03  0.165E-01    0.97       1.0  T
  11     -8.8286888 -0.229386E-03  0.790E-02    0.96       1.0  T
  12     -8.8287033 -0.145296E-04  0.619E-02    0.96       1.0  T
  13     -8.8287391 -0.357896E-04  0.235E-02    0.95       1.5  T
  14     -8.8287437 -0.462388E-05  0.814E-03    0.95       4.3  T
  15     -8.8287443 -0.566947E-06  0.351E-03    0.95      10.1  T
  16     -8.8287444 -0.953888E-07  0.167E-03    0.95      21.2  T
  17     -8.8287444 -0.303674E-07  0.139E-04    0.95     254.1  T
  18     -8.8287444 -0.146443E-09  0.636E-05    0.95     555.8  T
     SCC iter.                  ...        0 min,  0.004 sec
     gradient                   ...        0 min,  0.000 sec
 * total energy  :    -8.7147093 Eh     change       -0.1845451E-01 Eh
   gradient norm :     0.0878422 Eh/α   predicted    -0.2486622E-01 (  34.74%)
   displ. norm   :     0.7085198 α      lambda       -0.3274621E-01
   maximum displ.:     0.3838813 α      in ANC's #18, #17, #5, ...

........................................................................
.............................. CYCLE   10 ..............................
........................................................................
   1     -8.8634540 -0.886345E+01  0.186E+00    0.98       0.0  T
   2     -8.8634059  0.480691E-04  0.120E+00    0.99       1.0  T
   3     -8.8245571  0.388488E-01  0.139E+00    1.29       1.0  T
   4     -8.7686011  0.559561E-01  0.239E+00    0.72       1.0  T
   5     -8.8605517 -0.919506E-01  0.455E-01    0.93       1.0  T
   6     -8.8640701 -0.351843E-02  0.128E-01    1.01       1.0  T
   7     -8.8638572  0.212918E-03  0.138E-01    1.03       1.0  T
   8     -8.8638331  0.240962E-04  0.121E-01    1.03       1.0  T
   9     -8.8640435 -0.210418E-03  0.510E-02    1.02       1.0  T
  10     -8.8640526 -0.904581E-05  0.423E-02    1.02       1.0  T
  11     -8.8640683 -0.157502E-04  0.255E-02    1.02       1.4  T
  12     -8.8640745 -0.621141E-05  0.134E-02    1.02       2.6  T
  13     -8.8640758 -0.125228E-05  0.761E-03    1.01       4.6  T
  14     -8.8640763 -0.542030E-06  0.132E-03    1.01      26.7  T
  15     -8.8640763 -0.213548E-07  0.353E-04    1.01     100.2  T
  16     -8.8640763 -0.123522E-08  0.992E-05    1.01     356.6  T
     SCC iter.                  ...        0 min,  0.003 sec
     gradient                   ...        0 min,  0.000 sec
 * total energy  :    -8.7411538 Eh     change       -0.2644449E-01 Eh
   gradient norm :     0.1142986 Eh/α   predicted    -0.2459240E-01 (  -7.00%)
   displ. norm   :     0.7619792 α      lambda       -0.6440992E-01
   maximum displ.:     0.4948517 α      in ANC's #18, #17, #11, ...

........................................................................
.............................. CYCLE   11 ..............................
........................................................................
   1     -8.9830044 -0.898300E+01  0.297E+00    0.71       0.0  T
   2     -8.9829323  0.721853E-04  0.200E+00    0.70       1.0  T
   3     -8.8665813  0.116351E+00  0.241E+00    1.59       1.0  T
   4     -8.8204676  0.461138E-01  0.360E+00    0.50       1.0  T
   5     -8.9233211 -0.102854E+00  0.211E+00    0.57       1.0  T
   6     -8.9833228 -0.600017E-01  0.316E-01    0.75       1.0  T
   7     -8.9820119  0.131093E-02  0.495E-01    0.88       1.0  T
   8     -8.9801365  0.187535E-02  0.565E-01    0.90       1.0  T
   9     -8.9846529 -0.451641E-02  0.105E-01    0.81       1.0  T
  10     -8.9845553  0.976088E-04  0.125E-01    0.82       1.0  T
  11     -8.9846468 -0.915017E-04  0.756E-02    0.82       1.0  T
  12     -8.9846679 -0.210933E-04  0.529E-02    0.82       1.0  T
  13     -8.9846793 -0.114042E-04  0.295E-02    0.81       1.2  T
  14     -8.9846827 -0.339063E-05  0.156E-02    0.81       2.3  T
  15     -8.9846839 -0.120123E-05  0.314E-03    0.81      11.3  T
  16     -8.9846840 -0.481038E-07  0.108E-03    0.81      32.7  T
  17     -8.9846840 -0.770596E-08  0.163E-04    0.81     217.1  T
  18     -8.9846840 -0.248981E-09  0.272E-05    0.81    1298.4  T
     SCC iter.                  ...        0 min,  0.003 sec
     gradient                   ...        0 min,  0.001 sec
 * total energy  :    -8.7720591 Eh     change       -0.3090538E-01 Eh
   gradient norm :     0.2052894 Eh/α   predicted    -0.5090358E-01 (  64.71%)
   displ. norm   :     0.5379028 α      lambda       -0.6718442E-01
   maximum displ.:     0.2421811 α      in ANC's #3, #11, #5, ...

........................................................................
.............................. CYCLE   12 ..............................
........................................................................
   1     -8.9359286 -0.893593E+01  0.251E+00    0.71       0.0  T
   2     -8.6714500  0.264479E+00  0.383E+00    2.25       1.0  T
   3     -8.5145749  0.156875E+00  0.598E+00    0.56       1.0  T
   4     -8.6252666 -0.110692E+00  0.519E+00    0.57       1.0  T
   5     -8.8294652 -0.204199E+00  0.280E+00    0.61       1.0  T
   6     -8.9593394 -0.129874E+00  0.124E+00    0.95       1.0  T
   7     -8.9438696  0.154697E-01  0.166E+00    1.07       1.0  T
   8     -8.9453436 -0.147397E-02  0.161E+00    1.06       1.0  T
   9     -8.9505531 -0.520952E-02  0.132E+00    1.02       1.0  T
  10     -8.9581016 -0.754844E-02  0.854E-01    0.95       1.0  T
  11     -8.9589530 -0.851404E-03  0.747E-01    0.96       1.0  T
  12     -8.9602065 -0.125357E-02  0.641E-01    0.95       1.0  T
  13     -8.9617128 -0.150624E-02  0.458E-01    0.94       1.0  T
  14     -8.9627888 -0.107600E-02  0.254E-01    0.93       1.0  T
  15     -8.9631102 -0.321370E-03  0.122E-01    0.93       1.0  T
  16     -8.9631928 -0.826950E-04  0.444E-02    0.92       1.0  T
  17     -8.9632050 -0.121555E-04  0.105E-02    0.92       3.4  T
  18     -8.9632057 -0.742726E-06  0.107E-03    0.92      33.0  T
  19     -8.9632057 -0.193995E-08  0.746E-04    0.92      47.4  T
  20     -8.9632057 -0.418083E-08  0.252E-04    0.92     140.3  T
     SCC iter.                  ...        0 min,  0.005 sec
     gradient                   ...        0 min,  0.001 sec
 * total energy  :    -8.7957797 Eh     change       -0.2372054E-01 Eh
   gradient norm :     0.1343013 Eh/α   predicted    -0.4331176E-01 (  82.59%)
   displ. norm   :     0.6704142 α      lambda       -0.6727257E-01
   maximum displ.:     0.3496856 α      in ANC's #18, #2, #9, ...

........................................................................
.............................. CYCLE   13 ..............................
........................................................................
   1     -8.9230026 -0.892300E+01  0.189E+00    0.93       0.0  T
   2     -8.9171191  0.588350E-02  0.116E+00    1.07       1.0  T
   3     -7.2661376  0.165098E+01  0.104E+01    0.57       1.0  T
   4     -8.8278516 -0.156171E+01  0.252E+00    0.66       1.0  T
   5     -8.9176647 -0.898131E-01  0.600E-01    0.84       1.0  T
   6     -8.9195880 -0.192324E-02  0.493E-01    1.05       1.0  T
   7     -8.9218463 -0.225837E-02  0.336E-01    1.00       1.0  T
   8     -8.9237848 -0.193852E-02  0.788E-02    0.94       1.0  T
   9     -8.9235498  0.235040E-03  0.136E-01    0.96       1.0  T
  10     -8.9236961 -0.146338E-03  0.973E-02    0.95       1.0  T
  11     -8.9237077 -0.115544E-04  0.916E-02    0.95       1.0  T
  12     -8.9237320 -0.243464E-04  0.797E-02    0.95       1.0  T
  13     -8.9237461 -0.140352E-04  0.715E-02    0.95       1.0  T
  14     -8.9237521 -0.597430E-05  0.662E-02    0.95       1.0  T
  15     -8.9237687 -0.166955E-04  0.480E-02    0.95       1.0  T
  16     -8.9237833 -0.145286E-04  0.237E-02    0.95       1.5  T
  17     -8.9237880 -0.472723E-05  0.475E-03    0.95       7.4  T
  18     -8.9237882 -0.201432E-06  0.132E-03    0.95      26.8  T
  19     -8.9237882 -0.780845E-08  0.929E-04    0.95      38.0  T
  20     -8.9237882 -0.639967E-08  0.241E-04    0.95     147.0  T
     SCC iter.                  ...        0 min,  0.004 sec
     gradient                   ...        0 min,  0.000 sec
 * total energy  :    -8.7924839 Eh     change        0.3295750E-02 Eh
   gradient norm :     0.1376288 Eh/α   predicted    -0.4875426E-01 (*******%)
   displ. norm   :     0.3975249 α      lambda       -0.4482403E-01
   maximum displ.:     0.2038827 α      in ANC's #8, #11, #17, ...

........................................................................
.............................. CYCLE   14 ..............................
........................................................................
   1     -8.9458181 -0.894582E+01  0.167E+00    0.99       0.0  T
   2     -8.2467885  0.699030E+00  0.697E+00    0.39       1.0  T
   3     -8.9020371 -0.655249E+00  0.205E+00    1.28       1.0  T
   4     -8.9504275 -0.483904E-01  0.881E-01    0.90       1.0  T
   5     -8.9260486  0.243790E-01  0.128E+00    1.14       1.0  T
   6     -8.9446941 -0.186455E-01  0.887E-01    0.98       1.0  T
   7     -8.9452405 -0.546428E-03  0.825E-01    0.98       1.0  T
   8     -8.9493992 -0.415869E-02  0.618E-01    0.93       1.0  T
   9     -8.9497723 -0.373102E-03  0.586E-01    0.93       1.0  T
  10     -8.9508207 -0.104840E-02  0.453E-01    0.92       1.0  T
  11     -8.9511979 -0.377203E-03  0.388E-01    0.92       1.0  T
  12     -8.9522427 -0.104483E-02  0.139E-01    0.90       1.0  T
  13     -8.9523771 -0.134340E-03  0.533E-02    0.89       1.0  T
  14     -8.9523941 -0.170900E-04  0.268E-02    0.89       1.3  T
  15     -8.9524005 -0.634801E-05  0.108E-03    0.89      32.6  T
  16     -8.9524005 -0.969708E-08  0.808E-04    0.89      43.8  T
  17     -8.9524005  0.348084E-09  0.858E-04    0.89      41.2  T
     SCC iter.                  ...        0 min,  0.003 sec
     gradient                   ...        0 min,  0.001 sec
 * total energy  :    -8.8175858 Eh     change       -0.2510184E-01 Eh
   gradient norm :     0.0595072 Eh/α   predicted    -0.2595370E-01 (   3.39%)
   displ. norm   :     0.5878610 α      lambda       -0.2851104E-01
   maximum displ.:     0.4337995 α      in ANC's #6, #7, #16, ...

........................................................................
.............................. CYCLE   15 ..............................
........................................................................
   1     -9.0194107 -0.901941E+01  0.195E+00    0.70       0.0  T
   2     -8.8398910  0.179520E+00  0.330E+00    2.06       1.0  T
   3     -8.9963291 -0.156438E+00  0.191E+00    0.66       1.0  T
   4     -9.0327891 -0.364600E-01  0.539E-01    0.82       1.0  T
   5     -9.0333232 -0.534108E-03  0.533E-01    0.91       1.0  T
   6     -9.0319427  0.138048E-02  0.611E-01    0.94       1.0  T
   7     -9.0319708 -0.280966E-04  0.583E-01    0.94       1.0  T
   8     -9.0336252 -0.165438E-02  0.173E-01    0.93       1.0  T
   9     -9.0340929 -0.467774E-03  0.754E-02    0.89       1.0  T
  10     -9.0340991 -0.613324E-05  0.378E-02    0.90       1.0  T
  11     -9.0341161 -0.170449E-04  0.899E-03    0.90       3.9  T
  12     -9.0341169 -0.812213E-06  0.365E-03    0.90       9.7  T
  13     -9.0341169  0.541117E-07  0.354E-03    0.90      10.0  T
  14     -9.0341170 -0.850070E-07  0.107E-03    0.90      33.1  T
  15     -9.0341170 -0.103408E-07  0.308E-05    0.90    1147.3  T
  16     -9.0341170  0.796270E-10  0.107E-04    0.90     329.5  T
     SCC iter.                  ...        0 min,  0.003 sec
     gradient                   ...        0 min,  0.001 sec
 * total energy  :    -8.8055249 Eh     change        0.1206090E-01 Eh
   gradient norm :     0.1901157 Eh/α   predicted    -0.1918195E-01 (-259.04%)
   displ. norm   :     0.4089436 α      lambda       -0.5496400E-01
   maximum displ.:     0.2049795 α      in ANC's #11, #4, #1, ...

........................................................................
.............................. CYCLE   16 ..............................
........................................................................
   1     -8.9835059 -0.898351E+01  0.138E+00    0.95       0.0  T
   2     -8.9819087  0.159718E-02  0.106E+00    1.05       1.0  T
   3     -8.4725262  0.509382E+00  0.602E+00    0.46       1.0  T
   4     -8.9813296 -0.508803E+00  0.572E-01    1.02       1.0  T
   5     -8.9836183 -0.228872E-02  0.269E-01    0.99       1.0  T
   6     -8.9804584  0.315996E-02  0.495E-01    1.08       1.0  T
   7     -8.9833119 -0.285356E-02  0.260E-01    1.02       1.0  T
   8     -8.9834377 -0.125794E-03  0.237E-01    1.01       1.0  T
   9     -8.9835522 -0.114482E-03  0.198E-01    1.01       1.0  T
  10     -8.9836378 -0.855812E-04  0.170E-01    1.01       1.0  T
  11     -8.9837023 -0.645220E-04  0.137E-01    1.00       1.0  T
  12     -8.9837829 -0.805846E-04  0.920E-02    1.00       1.0  T
  13     -8.9838492 -0.663254E-04  0.206E-02    0.99       1.7  T
  14     -8.9838516 -0.231713E-05  0.106E-02    0.99       3.3  T
  15     -8.9838523 -0.749563E-06  0.289E-03    0.99      12.2  T
  16     -8.9838524 -0.579628E-07  0.638E-04    0.99      55.4  T
  17     -8.9838524 -0.300887E-08  0.460E-05    0.99     768.4  T
     SCC iter.                  ...        0 min,  0.002 sec
     gradient                   ...        0 min,  0.000 sec
 * total energy  :    -8.8294306 Eh     change       -0.2390573E-01 Eh
   gradient norm :     0.0288139 Eh/α   predicted    -0.3207794E-01 (  34.19%)
   displ. norm   :     0.4858534 α      lambda       -0.8545697E-02
   maximum displ.:     0.3250309 α      in ANC's #2, #1, #4, ...

........................................................................
.............................. CYCLE   17 ..............................
........................................................................
   1     -8.9781338 -0.897813E+01  0.236E+00    0.90       0.0  T
   2     -8.9771419  0.991850E-03  0.148E+00    0.82       1.0  T
   3     -8.8677196  0.109422E+00  0.244E+00    1.75       1.0  T
   4     -8.9534943 -0.857747E-01  0.108E+00    0.70       1.0  T
   5     -8.9763107 -0.228164E-01  0.439E-01    1.00       1.0  T
   6     -8.9784573 -0.214659E-02  0.184E-01    0.93       1.0  T
   7     -8.9782397  0.217599E-03  0.178E-01    0.95       1.0  T
   8     -8.9785470 -0.307354E-03  0.563E-02    0.93       1.0  T
   9     -8.9785606 -0.135693E-04  0.390E-02    0.93       1.0  T
  10     -8.9785742 -0.136286E-04  0.106E-02    0.93       3.3  T
  11     -8.9785757 -0.143853E-05  0.116E-03    0.93      30.5  T
  12     -8.9785757 -0.369218E-09  0.348E-04    0.93     101.6  T
  13     -8.9785757 -0.121680E-10  0.176E-04    0.93     200.6  T
     SCC iter.                  ...        0 min,  0.002 sec
     gradient                   ...        0 min,  0.000 sec
 * total energy  :    -8.8337510 Eh     change       -0.4320426E-02 Eh
   gradient norm :     0.0394925 Eh/α   predicted    -0.5281473E-02 (  22.24%)
   displ. norm   :     0.4275000 α      lambda       -0.5915754E-02
   maximum displ.:     0.2323490 α      in ANC's #3, #2, #5, ...

........................................................................
.............................. CYCLE   18 ..............................
........................................................................
   1     -8.9782715 -0.897827E+01  0.162E+00    1.18       0.0  T
   2     -8.9167333  0.615382E-01  0.168E+00    0.62       1.0  T
   3     -8.8545694  0.621639E-01  0.235E+00    2.13       1.0  T
   4     -8.9686616 -0.114092E+00  0.785E-01    1.31       1.0  T
   5     -8.9790864 -0.104249E-01  0.322E-01    1.14       1.0  T
   6     -8.9798406 -0.754224E-03  0.188E-01    1.12       1.0  T
   7     -8.9802477 -0.407014E-03  0.920E-02    1.10       1.0  T
   8     -8.9800894  0.158240E-03  0.114E-01    1.11       1.0  T
   9     -8.9801719 -0.825148E-04  0.889E-02    1.11       1.0  T
  10     -8.9803221 -0.150163E-03  0.101E-02    1.09       3.5  T
  11     -8.9803240 -0.194489E-05  0.190E-03    1.08      18.6  T
  12     -8.9803241 -0.884154E-08  0.427E-04    1.08      82.8  T
  13     -8.9803241 -0.669026E-09  0.191E-04    1.08     185.4  T
     SCC iter.                  ...        0 min,  0.001 sec
     gradient                   ...        0 min,  0.000 sec
 * total energy  :    -8.8356463 Eh     change       -0.1895289E-02 Eh
   gradient norm :     0.0482790 Eh/α   predicted    -0.3498447E-02 (  84.59%)
   displ. norm   :     0.3079384 α      lambda       -0.9459697E-02
   maximum displ.:     0.1235094 α      in ANC's #16, #7, #2, ...

........................................................................
.............................. CYCLE   19 ..............................
........................................................................
   1     -8.9943372 -0.899434E+01  0.928E-01    1.03       0.0  T
   2     -8.9537363  0.406009E-01  0.146E+00    1.71       1.0  T
   3     -8.9872996 -0.335633E-01  0.814E-01    0.96       1.0  T
   4     -8.9972534 -0.995375E-02  0.360E-01    1.15       1.0  T
   5     -8.9969498  0.303581E-03  0.197E-01    1.10       1.0  T
   6     -8.9975778 -0.628028E-03  0.978E-02    1.16       1.0  T
   7     -8.9976172 -0.394468E-04  0.523E-02    1.16       1.0  T
   8     -8.9976701 -0.528557E-04  0.477E-03    1.14       7.4  T
   9     -8.9976700  0.859519E-07  0.352E-03    1.14      10.0  T
  10     -8.9976701 -0.113289E-06  0.642E-04    1.14      55.1  T
  11     -8.9976701 -0.289772E-08  0.275E-04    1.14     128.4  T
     SCC iter.                  ...        0 min,  0.001 sec
     gradient                   ...        0 min,  0.001 sec
 * total energy  :    -8.8393199 Eh     change       -0.3673562E-02 Eh
   gradient norm :     0.0430316 Eh/α   predicted    -0.5178363E-02 (  40.96%)
   displ. norm   :     0.6027211 α      lambda       -0.1110286E-01
   maximum displ.:     0.3857570 α      in ANC's #1, #3, #18, ...

........................................................................
.............................. CYCLE   20 ..............................
........................................................................
   1     -8.9851626 -0.898516E+01  0.266E+00    0.99       0.0  T
   2     -8.9398922  0.452704E-01  0.251E+00    1.73       1.0  T
   3     -8.0543578  0.885534E+00  0.515E+00    0.07       1.0  T
   4     -8.8919246 -0.837567E+00  0.205E+00    1.97       1.0  T
   5     -8.9742541 -0.823295E-01  0.115E+00    1.30       1.0  T
   6     -8.9766109 -0.235675E-02  0.783E-01    1.31       1.0  T
   7     -8.9800385 -0.342759E-02  0.682E-01    1.29       1.0  T
   8     -8.9866267 -0.658828E-02  0.365E-01    1.23       1.0  T
   9     -8.9879571 -0.133032E-02  0.236E-01    1.22       1.0  T
  10     -8.9890366 -0.107953E-02  0.510E-02    1.19       1.0  T
  11     -8.9890952 -0.585965E-04  0.129E-02    1.18       2.7  T
  12     -8.9890966 -0.138711E-05  0.408E-03    1.18       8.7  T
  13     -8.9890966 -0.535220E-07  0.327E-03    1.18      10.8  T
  14     -8.9890968 -0.138712E-06  0.220E-03    1.18      16.1  T
  15     -8.9890969 -0.103859E-06  0.332E-04    1.18     106.5  T
  16     -8.9890969 -0.142474E-08  0.419E-05    1.18     843.3  T
     SCC iter.                  ...        0 min,  0.002 sec
     gradient                   ...        0 min,  0.001 sec
 * total energy  :    -8.8360083 Eh     change        0.3311578E-02 Eh
   gradient norm :     0.0762492 Eh/α   predicted    -0.7568117E-02 (-328.54%)
   displ. norm   :     0.2773994 α      lambda       -0.1297572E-01
   maximum displ.:     0.1717323 α      in ANC's #2, #9, #3, ...
 * RMSD in coord.:     1.9135577 α      energy gain  -0.5931314E+00 Eh

generating ANC from model Hessian ...
Using Lindh-Hessian (1995)
 Shifting diagonal of input Hessian by    1.0181687350845584E-002
 Lowest  eigenvalues of input Hessian
    0.010000    0.000000    0.000000    0.000000    0.000000    0.000000
    0.000000    0.010188    0.010376    0.010409    0.011939    0.029722
    0.042187    0.106325    0.148527    0.155604    0.167627    0.353006
 Highest eigenvalues
    0.426512    0.526241    0.820194    1.210023    1.246632    1.721761


........................................................................
.............................. CYCLE   21 ..............................
........................................................................
   1     -8.9899394 -0.898994E+01  0.989E-01    1.03       0.0  T
   2     -8.9571706  0.327687E-01  0.115E+00    0.52       1.0  T
   3     -8.9256343  0.315364E-01  0.172E+00    1.63       1.0  T
   4     -8.9788372 -0.532029E-01  0.920E-01    1.21       1.0  T
   5     -8.9911877 -0.123504E-01  0.304E-01    1.01       1.0  T
   6     -8.9926396 -0.145193E-02  0.132E-01    0.94       1.0  T
   7     -8.9926776 -0.380335E-04  0.763E-02    0.94       1.0  T
   8     -8.9927877 -0.110063E-03  0.142E-02    0.92       2.5  T
   9     -8.9927888 -0.108667E-05  0.832E-03    0.92       4.2  T
  10     -8.9927897 -0.957878E-06  0.351E-03    0.92      10.1  T
  11     -8.9927899 -0.138403E-06  0.598E-04    0.92      59.2  T
  12     -8.9927899  0.225473E-10  0.466E-04    0.92      75.8  T
     SCC iter.                  ...        0 min,  0.001 sec
     gradient                   ...        0 min,  0.000 sec
 * total energy  :    -8.8422969 Eh     change       -0.6288561E-02 Eh
   gradient norm :     0.0403523 Eh/α   predicted     0.0000000E+00 (-100.00%)
   displ. norm   :     0.2240075 α      lambda       -0.4601386E-02
   maximum displ.:     0.1298359 α      in ANC's #7, #8, #3, ...

........................................................................
.............................. CYCLE   22 ..............................
........................................................................
   1     -9.0005336 -0.900053E+01  0.714E-01    1.09       0.0  T
   2     -9.0001032  0.430343E-03  0.453E-01    1.04       1.0  T
   3     -8.9742551  0.258481E-01  0.990E-01    1.49       1.0  T
   4     -8.9991134 -0.248583E-01  0.326E-01    0.98       1.0  T
   5     -9.0006161 -0.150268E-02  0.449E-02    1.09       1.0  T
   6     -9.0006357 -0.195873E-04  0.227E-02    1.08       1.6  T
   7     -9.0006342  0.143820E-05  0.875E-03    1.08       4.0  T
   8     -9.0006359 -0.166343E-05  0.273E-03    1.08      12.9  T
   9     -9.0006359 -0.797244E-08  0.671E-04    1.08      52.7  T
  10     -9.0006359 -0.240931E-08  0.247E-04    1.08     143.1  T
     SCC iter.                  ...        0 min,  0.002 sec
     gradient                   ...        0 min,  0.000 sec
 * total energy  :    -8.8455204 Eh     change       -0.3223531E-02 Eh
   gradient norm :     0.0161975 Eh/α   predicted    -0.2416144E-02 ( -25.05%)
   displ. norm   :     0.2663971 α      lambda       -0.2028642E-02
   maximum displ.:     0.1348409 α      in ANC's #3, #5, #7, ...

........................................................................
.............................. CYCLE   23 ..............................
........................................................................
   1     -9.0034037 -0.900340E+01  0.876E-01    1.18       0.0  T
   2     -9.0032263  0.177396E-03  0.589E-01    1.23       1.0  T
   3     -8.9727452  0.304811E-01  0.110E+00    0.80       1.0  T
   4     -8.9970547 -0.243095E-01  0.490E-01    1.37       1.0  T
   5     -9.0034693 -0.641463E-02  0.461E-02    1.19       1.0  T
   6     -9.0034769 -0.753610E-05  0.292E-02    1.19       1.2  T
   7     -9.0034768  0.490039E-07  0.931E-03    1.19       3.8  T
   8     -9.0034783 -0.143540E-05  0.354E-03    1.19      10.0  T
   9     -9.0034783 -0.718888E-07  0.113E-03    1.19      31.2  T
  10     -9.0034783 -0.207980E-07  0.433E-04    1.19      81.7  T
  11     -9.0034783 -0.324912E-08  0.117E-04    1.19     303.3  T
     SCC iter.                  ...        0 min,  0.001 sec
     gradient                   ...        0 min,  0.000 sec
 * total energy  :    -8.8469252 Eh     change       -0.1404780E-02 Eh
   gradient norm :     0.0092009 Eh/α   predicted    -0.1086307E-02 ( -22.67%)
   displ. norm   :     0.3083438 α      lambda       -0.1172327E-02
   maximum displ.:     0.1726765 α      in ANC's #5, #6, #3, ...

........................................................................
.............................. CYCLE   24 ..............................
........................................................................
   1     -9.0030371 -0.900304E+01  0.103E+00    1.18       0.0  T
   2     -9.0024443  0.592825E-03  0.725E-01    1.26       1.0  T
   3     -8.8106654  0.191779E+00  0.259E+00    0.44       1.0  T
   4     -9.0027900 -0.192125E+00  0.128E-01    1.23       1.0  T
   5     -9.0030969 -0.306921E-03  0.552E-02    1.20       1.0  T
   6     -9.0030894  0.750371E-05  0.461E-02    1.20       1.0  T
   7     -9.0030926 -0.327899E-05  0.238E-02    1.21       1.5  T
   8     -9.0031018 -0.912620E-05  0.122E-02    1.20       2.9  T
   9     -9.0031037 -0.195501E-05  0.665E-03    1.20       5.3  T
  10     -9.0031044 -0.696803E-06  0.342E-03    1.20      10.3  T
  11     -9.0031046 -0.158600E-06  0.187E-03    1.20      18.9  T
  12     -9.0031046 -0.602497E-07  0.464E-04    1.20      76.1  T
  13     -9.0031046 -0.440504E-08  0.271E-05    1.20    1303.8  T
     SCC iter.                  ...        0 min,  0.002 sec
     gradient                   ...        0 min,  0.001 sec
 * total energy  :    -8.8477550 Eh     change       -0.8298603E-03 Eh
   gradient norm :     0.0092327 Eh/α   predicted    -0.6418941E-03 ( -22.65%)
   displ. norm   :     0.2676082 α      lambda       -0.5325658E-03
   maximum displ.:     0.1590252 α      in ANC's #5, #3, #7, ...

........................................................................
.............................. CYCLE   25 ..............................
........................................................................
   1     -9.0028565 -0.900286E+01  0.682E-01    1.18       0.0  T
   2     -9.0028329  0.236193E-04  0.450E-01    1.19       1.0  T
   3     -8.9934620  0.937085E-02  0.577E-01    0.98       1.0  T
   4     -9.0024437 -0.898165E-02  0.140E-01    1.23       1.0  T
   5     -9.0028741 -0.430404E-03  0.388E-02    1.18       1.0  T
   6     -9.0028746 -0.504450E-06  0.250E-02    1.17       1.4  T
   7     -9.0028815 -0.685994E-05  0.567E-03    1.18       6.2  T
   8     -9.0028818 -0.349866E-06  0.289E-03    1.18      12.2  T
   9     -9.0028819 -0.872400E-07  0.654E-04    1.18      54.1  T
  10     -9.0028819 -0.574839E-08  0.213E-04    1.18     165.9  T
     SCC iter.                  ...        0 min,  0.001 sec
     gradient                   ...        0 min,  0.000 sec
 * total energy  :    -8.8480635 Eh     change       -0.3084750E-03 Eh
   gradient norm :     0.0091999 Eh/α   predicted    -0.2853558E-03 (  -7.49%)
   displ. norm   :     0.2437628 α      lambda       -0.4908452E-03
   maximum displ.:     0.2031115 α      in ANC's #5, #7, #4, ...

........................................................................
.............................. CYCLE   26 ..............................
........................................................................
   1     -9.0106850 -0.901069E+01  0.532E-01    1.17       0.0  T
   2     -9.0106135  0.715432E-04  0.347E-01    1.20       1.0  T
   3     -8.9952604  0.153531E-01  0.771E-01    0.91       1.0  T
   4     -9.0102794 -0.150190E-01  0.124E-01    1.22       1.0  T
   5     -9.0106917 -0.412293E-03  0.345E-02    1.17       1.0  T
   6     -9.0107042 -0.124851E-04  0.189E-02    1.17       1.9  T
   7     -9.0107043 -0.152987E-06  0.873E-03    1.17       4.0  T
   8     -9.0107049 -0.622262E-06  0.242E-03    1.17      14.6  T
   9     -9.0107050 -0.233246E-07  0.109E-03    1.17      32.4  T
  10     -9.0107050 -0.188855E-07  0.390E-04    1.17      90.6  T
  11     -9.0107050 -0.175695E-08  0.201E-04    1.17     175.8  T
     SCC iter.                  ...        0 min,  0.002 sec
     gradient                   ...        0 min,  0.000 sec
 * total energy  :    -8.8479646 Eh     change        0.9895282E-04 Eh
   gradient norm :     0.0175481 Eh/α   predicted    -0.2600058E-03 (-362.76%)
   displ. norm   :     0.1031022 α      lambda       -0.6303143E-03
   maximum displ.:     0.0654438 α      in ANC's #1, #3, #6, ...

........................................................................
.............................. CYCLE   27 ..............................
........................................................................
   1     -9.0088033 -0.900880E+01  0.362E-01    1.20       0.0  T
   2     -9.0087897  0.136514E-04  0.235E-01    1.19       1.0  T
   3     -9.0061971  0.259263E-02  0.296E-01    1.31       1.0  T
   4     -9.0085743 -0.237724E-02  0.110E-01    1.16       1.0  T
   5     -9.0088058 -0.231452E-03  0.193E-02    1.19       1.8  T
   6     -9.0088088 -0.301859E-05  0.689E-03    1.20       5.1  T
   7     -9.0088089 -0.140813E-06  0.239E-03    1.19      14.8  T
   8     -9.0088090 -0.836528E-07  0.796E-04    1.19      44.4  T
   9     -9.0088090  0.639044E-10  0.348E-04    1.19     101.7  T
     SCC iter.                  ...        0 min,  0.001 sec
     gradient                   ...        0 min,  0.000 sec
 * total energy  :    -8.8483037 Eh     change       -0.3391418E-03 Eh
   gradient norm :     0.0044171 Eh/α   predicted    -0.3185072E-03 (  -6.08%)
   displ. norm   :     0.0998757 α      lambda       -0.1079474E-03
   maximum displ.:     0.0516673 α      in ANC's #5, #4, #7, ...

........................................................................
.............................. CYCLE   28 ..............................
........................................................................
   1     -9.0065924 -0.900659E+01  0.222E-01    1.18       0.0  T
   2     -9.0065064  0.860467E-04  0.154E-01    1.20       1.0  T
   3     -9.0000718  0.643453E-02  0.492E-01    1.01       1.0  T
   4     -9.0065551 -0.648326E-02  0.455E-02    1.20       1.0  T
   5     -9.0065998 -0.447256E-04  0.116E-02    1.18       3.1  T
   6     -9.0065994  0.354529E-06  0.819E-03    1.18       4.3  T
   7     -9.0065984  0.107725E-05  0.802E-03    1.19       4.4  T
   8     -9.0065999 -0.148986E-05  0.185E-03    1.18      19.1  T
   9     -9.0065999 -0.391486E-07  0.846E-04    1.18      41.8  T
  10     -9.0065999 -0.967201E-08  0.263E-04    1.18     134.5  T
     SCC iter.                  ...        0 min,  0.001 sec
     gradient                   ...        0 min,  0.000 sec
 * total energy  :    -8.8483682 Eh     change       -0.6452403E-04 Eh
   gradient norm :     0.0043588 Eh/α   predicted    -0.5451069E-04 ( -15.52%)
   displ. norm   :     0.1302127 α      lambda       -0.1017601E-03
   maximum displ.:     0.0766516 α      in ANC's #5, #4, #6, ...

........................................................................
.............................. CYCLE   29 ..............................
........................................................................
   1     -9.0065996 -0.900660E+01  0.322E-01    1.18       0.0  T
   2     -9.0063692  0.230408E-03  0.216E-01    1.22       1.0  T
   3     -8.9928132  0.135560E-01  0.755E-01    0.94       1.0  T
   4     -9.0064661 -0.136529E-01  0.802E-02    1.21       1.0  T
   5     -9.0066102 -0.144046E-03  0.215E-02    1.18       1.6  T
   6     -9.0066163 -0.613417E-05  0.109E-02    1.18       3.2  T
   7     -9.0066158  0.539783E-06  0.766E-03    1.18       4.6  T
   8     -9.0066163 -0.588257E-06  0.273E-03    1.18      13.0  T
   9     -9.0066164 -0.772392E-07  0.122E-03    1.18      29.0  T
  10     -9.0066164 -0.197129E-07  0.552E-04    1.18      64.0  T
  11     -9.0066164 -0.406756E-08  0.206E-04    1.18     171.9  T
     SCC iter.                  ...        0 min,  0.002 sec
     gradient                   ...        0 min,  0.000 sec
 * total energy  :    -8.8484517 Eh     change       -0.8349943E-04 Eh
   gradient norm :     0.0039881 Eh/α   predicted    -0.5174368E-04 ( -38.03%)
   displ. norm   :     0.2482688 α      lambda       -0.1661625E-03
   maximum displ.:     0.1381549 α      in ANC's #4, #5, #6, ...

........................................................................
.............................. CYCLE   30 ..............................
........................................................................
   1     -9.0068398 -0.900684E+01  0.697E-01    1.19       0.0  T
   2     -9.0056791  0.116075E-02  0.452E-01    1.28       1.0  T
   3     -8.9207381  0.849409E-01  0.205E+00    0.69       1.0  T
   4     -9.0067119 -0.859738E-01  0.162E-01    1.19       1.0  T
   5     -9.0067522 -0.403367E-04  0.855E-02    1.17       1.0  T
   6     -9.0069170 -0.164738E-03  0.297E-02    1.19       1.2  T
   7     -9.0069062  0.108160E-04  0.258E-02    1.20       1.4  T
   8     -9.0069138 -0.758052E-05  0.163E-02    1.20       2.2  T
   9     -9.0069152 -0.146060E-05  0.119E-02    1.20       3.0  T
  10     -9.0069170 -0.175326E-05  0.498E-03    1.20       7.1  T
  11     -9.0069172 -0.207042E-06  0.247E-03    1.19      14.3  T
  12     -9.0069172 -0.592289E-07  0.120E-04    1.19     294.2  T
  13     -9.0069172  0.156300E-09  0.194E-04    1.19     182.4  T
     SCC iter.                  ...        0 min,  0.002 sec
     gradient                   ...        0 min,  0.001 sec
 * total energy  :    -8.8485492 Eh     change       -0.9746844E-04 Eh
   gradient norm :     0.0071006 Eh/α   predicted    -0.8820162E-04 (  -9.51%)
   displ. norm   :     0.0745953 α      lambda       -0.5905927E-04
   maximum displ.:     0.0381366 α      in ANC's #6, #5, #4, ...

........................................................................
.............................. CYCLE   31 ..............................
........................................................................
   1     -9.0084190 -0.900842E+01  0.266E-01    1.19       0.0  T
   2     -9.0083357  0.832343E-04  0.163E-01    1.22       1.0  T
   3     -8.9994357  0.890000E-02  0.627E-01    1.00       1.0  T
   4     -9.0084218 -0.898605E-02  0.253E-02    1.19       1.4  T
   5     -9.0084207  0.110409E-05  0.173E-02    1.19       2.0  T
   6     -9.0084222 -0.152607E-05  0.127E-02    1.19       2.8  T
   7     -9.0084250 -0.282617E-05  0.306E-03    1.19      11.6  T
   8     -9.0084251 -0.520232E-07  0.119E-03    1.19      29.8  T
   9     -9.0084251 -0.174374E-07  0.395E-04    1.19      89.5  T
  10     -9.0084251 -0.264537E-08  0.129E-04    1.19     273.6  T
     SCC iter.                  ...        0 min,  0.001 sec
     gradient                   ...        0 min,  0.001 sec
 * total energy  :    -8.8485963 Eh     change       -0.4706105E-04 Eh
   gradient norm :     0.0046648 Eh/α   predicted    -0.2969294E-04 ( -36.91%)
   displ. norm   :     0.2476985 α      lambda       -0.1112300E-03
   maximum displ.:     0.1244446 α      in ANC's #5, #4, #6, ...

........................................................................
.............................. CYCLE   32 ..............................
........................................................................
   1     -9.0084646 -0.900846E+01  0.786E-01    1.20       0.0  T
   2     -9.0072128  0.125173E-02  0.481E-01    1.29       1.0  T
   3     -8.8724604  0.134752E+00  0.274E+00    0.67       1.0  T
   4     -9.0075111 -0.135051E+00  0.235E-01    1.14       1.0  T
   5     -9.0084230 -0.911941E-03  0.797E-02    1.18       1.0  T
   6     -9.0085443 -0.121350E-03  0.330E-02    1.20       1.1  T
   7     -9.0085353  0.907894E-05  0.253E-02    1.21       1.4  T
   8     -9.0085402 -0.489901E-05  0.195E-02    1.21       1.8  T
   9     -9.0085424 -0.225016E-05  0.147E-02    1.21       2.4  T
  10     -9.0085452 -0.282706E-05  0.639E-03    1.20       5.5  T
  11     -9.0085454 -0.188732E-06  0.422E-03    1.20       8.4  T
  12     -9.0085456 -0.127491E-06  0.124E-03    1.20      28.4  T
  13     -9.0085456 -0.130312E-07  0.190E-04    1.20     185.8  T
  14     -9.0085456 -0.148699E-09  0.883E-06    1.20    4005.3  T
     SCC iter.                  ...        0 min,  0.002 sec
     gradient                   ...        0 min,  0.000 sec
 * total energy  :    -8.8486778 Eh     change       -0.8153317E-04 Eh
   gradient norm :     0.0057220 Eh/α   predicted    -0.5902773E-04 ( -27.60%)
   displ. norm   :     0.3508875 α      lambda       -0.1761201E-03
   maximum displ.:     0.1693755 α      in ANC's #4, #5, #6, ...

........................................................................
.............................. CYCLE   33 ..............................
........................................................................
   1     -9.0082713 -0.900827E+01  0.125E+00    1.23       0.0  T
   2     -9.0043796  0.389172E-02  0.736E-01    1.38       1.0  T
   3     -8.3395308  0.664849E+00  0.655E+00    0.54       1.0  T
   4     -8.9265896 -0.587059E+00  0.214E+00    0.83       1.0  T
   5     -9.0069508 -0.803613E-01  0.280E-01    1.16       1.0  T
   6     -9.0084258 -0.147499E-02  0.812E-02    1.21       1.0  T
   7     -9.0083788  0.470593E-04  0.843E-02    1.25       1.0  T
   8     -9.0085003 -0.121563E-03  0.355E-02    1.23       1.0  T
   9     -9.0084946  0.575079E-05  0.373E-02    1.23       1.0  T
  10     -9.0084958 -0.117601E-05  0.343E-02    1.23       1.0  T
  11     -9.0085022 -0.640506E-05  0.271E-02    1.23       1.3  T
  12     -9.0085027 -0.483784E-06  0.258E-02    1.23       1.4  T
  13     -9.0085056 -0.297681E-05  0.161E-02    1.23       2.2  T
[...]
   maximum displ.:     0.0299492 α      in ANC's #3, #1, #2, ...

........................................................................
.............................. CYCLE   69 ..............................
........................................................................
   1     -9.0253165 -0.902532E+01  0.782E-02    1.82       0.0  T
   2     -9.0253079  0.852849E-05  0.514E-02    1.83       1.0  T
   3     -9.0247776  0.530334E-03  0.136E-01    1.78       1.0  T
   4     -9.0253035 -0.525861E-03  0.310E-02    1.83       1.1  T
   5     -9.0253166 -0.131241E-04  0.876E-03    1.82       4.0  T
   6     -9.0253171 -0.529183E-06  0.649E-03    1.82       5.4  T
   7     -9.0253178 -0.719157E-06  0.159E-03    1.82      22.2  T
   8     -9.0253179 -0.593984E-07  0.395E-04    1.82      89.4  T
   9     -9.0253179 -0.103732E-08  0.249E-04    1.82     141.9  T
     SCC iter.                  ...        0 min,  0.001 sec
     gradient                   ...        0 min,  0.000 sec
 * total energy  :    -8.8605822 Eh     change       -0.2315670E-04 Eh
   gradient norm :     0.0022598 Eh/α   predicted    -0.1862066E-04 ( -19.59%)
   displ. norm   :     0.0481234 α      lambda       -0.2136243E-04
   maximum displ.:     0.0332986 α      in ANC's #3, #1, #2, ...

........................................................................
.............................. CYCLE   70 ..............................
........................................................................
   1     -9.0255706 -0.902557E+01  0.109E-01    1.82       0.0  T
   2     -9.0255646  0.602331E-05  0.698E-02    1.82       1.0  T
   3     -9.0248113  0.753251E-03  0.158E-01    1.76       1.0  T
   4     -9.0255569 -0.745557E-03  0.277E-02    1.82       1.3  T
   5     -9.0255717 -0.147976E-04  0.699E-03    1.81       5.1  T
   6     -9.0255717 -0.626905E-07  0.529E-03    1.81       6.7  T
   7     -9.0255719 -0.213619E-06  0.103E-03    1.82      34.4  T
   8     -9.0255720 -0.254990E-07  0.233E-04    1.82     151.9  T
   9     -9.0255720 -0.151401E-09  0.456E-05    1.82     776.0  T
     SCC iter.                  ...        0 min,  0.001 sec
     gradient                   ...        0 min,  0.000 sec
 * total energy  :    -8.8605994 Eh     change       -0.1717361E-04 Eh
   gradient norm :     0.0021325 Eh/α   predicted    -0.1070626E-04 ( -37.66%)
   displ. norm   :     0.1055830 α      lambda       -0.3265449E-04
   maximum displ.:     0.0741908 α      in ANC's #3, #1, #2, ...

........................................................................
.............................. CYCLE   71 ..............................
........................................................................
   1     -9.0248662 -0.902487E+01  0.229E-01    1.81       0.0  T
   2     -9.0248454  0.207182E-04  0.146E-01    1.82       1.0  T
   3     -9.0216342  0.321123E-02  0.325E-01    1.70       1.0  T
   4     -9.0248285 -0.319427E-02  0.455E-02    1.82       1.0  T
   5     -9.0248704 -0.419624E-04  0.114E-02    1.81       3.1  T
   6     -9.0248698  0.687808E-06  0.106E-02    1.81       3.3  T
   7     -9.0248706 -0.866179E-06  0.209E-03    1.81      17.0  T
   8     -9.0248707 -0.609316E-07  0.112E-03    1.81      31.5  T
   9     -9.0248707 -0.200676E-07  0.345E-04    1.81     102.6  T
  10     -9.0248707 -0.242299E-08  0.134E-04    1.81     264.5  T
     SCC iter.                  ...        0 min,  0.001 sec
     gradient                   ...        0 min,  0.000 sec
 * total energy  :    -8.8606178 Eh     change       -0.1841625E-04 Eh
   gradient norm :     0.0010244 Eh/α   predicted    -0.1650910E-04 ( -10.36%)
   displ. norm   :     0.0378040 α      lambda       -0.3783729E-05
   maximum displ.:     0.0265078 α      in ANC's #3, #1, #5, ...

........................................................................
.............................. CYCLE   72 ..............................
........................................................................
   1     -9.0245044 -0.902450E+01  0.683E-02    1.81       0.0  T
   2     -9.0245040  0.424756E-06  0.436E-02    1.81       1.0  T
   3     -9.0244050  0.990274E-04  0.571E-02    1.79       1.0  T
   4     -9.0245041 -0.991294E-04  0.672E-03    1.81       5.3  T
   5     -9.0245045 -0.406782E-06  0.440E-03    1.81       8.0  T
   6     -9.0245046 -0.908960E-07  0.142E-03    1.81      24.9  T
   7     -9.0245046 -0.147090E-07  0.545E-04    1.81      64.8  T
   8     -9.0245046  0.988287E-09  0.371E-04    1.81      95.2  T
     SCC iter.                  ...        0 min,  0.001 sec
     gradient                   ...        0 min,  0.000 sec
 * total energy  :    -8.8606220 Eh     change       -0.4244887E-05 Eh
   gradient norm :     0.0009341 Eh/α   predicted    -0.1892691E-05 ( -55.41%)
   displ. norm   :     0.0363955 α      lambda       -0.4967840E-05
   maximum displ.:     0.0227984 α      in ANC's #3, #5, #1, ...

   *** GEOMETRY OPTIMIZATION CONVERGED AFTER 72 ITERATIONS ***

------------------------------------------------------------------------
 total energy gain   :        -0.6177451 Eh     -387.6409 kcal/mol
 total RMSD          :         2.7235307 a0        1.4412 Å
 total power (kW/mol):       -22.5262444 (step)-8468.2399 (real)
------------------------------------------------------------------------

 ANCopt (total)                0 d,  0 h,  0 min,  0.192 sec
 optimizer setup                ...        0 min,  0.000 sec (  0.015%)
 model hessian                  ...        0 min,  0.000 sec (  0.232%)
 ANC generation                 ...        0 min,  0.000 sec (  0.076%)
 coordinate transformation      ...        0 min,  0.000 sec (  0.101%)
 single point calculation       ...        0 min,  0.185 sec ( 96.343%)
 optimization log               ...        0 min,  0.002 sec (  1.073%)
 hessian update                 ...        0 min,  0.002 sec (  0.838%)
 rational function              ...        0 min,  0.001 sec (  0.640%)

================
 final structure:
================
8
 xtb: 6.5.1 (conda-forge)
Be           0.65837763578856        0.00855352307845        0.51526899271167
C            0.61195546052110        1.13407692906803        1.62071280383077
C            1.23102922159383        1.18301477877038        2.76029756295885
C            1.65105813375256       -0.17301003630794        2.07392563416048
H            1.32916053138632       -0.98239158060019        2.71744367318292
H            2.72409107723828       -0.14956078241375        1.92824112703675
H            0.38603246570172        1.10591754330317        4.60951353467888
H            0.03229547402617        0.96844662509633        5.31809667143051

 Bond Distances (Angstroems)
 ---------------------------
Be1-C2=1.5783        Be1-C4=1.8568        C2-Be1=1.5783        C2-C3=1.2978         C2-C4=1.7302         C3-C2=1.2978         
C3-C4=1.5768         C4-Be1=1.8568        C4-C2=1.7302         C4-C3=1.5768         C4-H5=1.0830         C4-H6=1.0831         
H5-C4=1.0830         H6-C4=1.0831         H7-H8=0.8038         H8-H7=0.8038         
 H  H  Rav=0.8038 sigma=0.0000  Rmin=0.8038  Rmax=0.8038     1
 C  H  Rav=1.0831 sigma=0.0001  Rmin=1.0830  Rmax=1.0831     2
 C  Be Rav=1.7176 sigma=0.1393  Rmin=1.5783  Rmax=1.8568     2
 C  C  Rav=1.5349 sigma=0.1790  Rmin=1.2978  Rmax=1.7302     3

 selected bond angles (degree)
 --------------------
C4-Be1-C2= 59.84               C3-C2-Be1=128.89               C4-C2-Be1= 68.10               C4-C2-C3= 60.79                
C4-C3-C2= 73.29                C2-C4-Be1= 52.06               C3-C4-Be1= 97.98               C3-C4-C2= 45.92                
H5-C4-Be1=114.39               H5-C4-C2=122.80                H5-C4-C3=107.75                H6-C4-Be1=114.49               
H6-C4-C2=122.91                H6-C4-C3=107.69                H6-C4-H5=112.99                

 selected dihedral angles (degree)
 ---------------------------------
C3-C2-Be1-C4=  0.09           C4-C3-C2-Be1=359.91           C3-C4-Be1-C2=359.94           H5-C4-Be1-C2=113.62           
H6-C4-Be1-C2=246.30           Be1-C4-C2-C3=180.08           C3-C4-C2-Be1=179.92           H5-C4-C2-Be1=263.08           
H5-C4-C2-C3= 83.16            H6-C4-C2-Be1= 96.99           H6-C4-C2-C3=277.06            Be1-C4-C3-C2=  0.06           
H5-C4-C3-C2=241.20            H6-C4-C3-C2=119.02            

 CMA Distance (Angstroems)
 ---------------------------
R(CMA):  1.9688
           -------------------------------------------------
          |                Final Singlepoint                |
           -------------------------------------------------

          ...................................................
          :                      SETUP                      :
          :.................................................:
          :  # basis functions                  20          :
          :  # atomic orbitals                  20          :
          :  # shells                           12          :
          :  # electrons                        18          :
          :  max. iterations                   250          :
          :  Hamiltonian                  GFN2-xTB          :
          :  restarted?                      false          :
          :  GBSA solvation                  false          :
          :  PC potential                    false          :
          :  electronic temp.          300.0000000     K    :
          :  accuracy                    1.0000000          :
          :  -> integral cutoff          0.2500000E+02      :
          :  -> integral neglect         0.1000000E-07      :
          :  -> SCF convergence          0.1000000E-05 Eh   :
          :  -> wf. convergence          0.1000000E-03 e    :
          :  Broyden damping             0.4000000          :
          ...................................................

 iter      E             dE          RMSdq      gap      omega  full diag
   1     -9.0245046 -0.902450E+01  0.170E-04    1.81       0.0  T
   2     -9.0245046  0.114798E-07  0.613E-04    1.81      57.6  T
   3     -9.0245046 -0.117905E-07  0.112E-04    1.81     316.6  T

   *** convergence criteria satisfied after 3 iterations ***

         #    Occupation            Energy/Eh            Energy/eV
      -------------------------------------------------------------
         1        2.0000           -0.6037251             -16.4282
       ...           ...                  ...                  ...
         3        2.0000           -0.4820614             -13.1176
         4        2.0000           -0.4778300             -13.0024
         5        2.0000           -0.4362323             -11.8705
         6        2.0000           -0.4254352             -11.5767
         7        2.0000           -0.3771572             -10.2630
         8        2.0000           -0.3606660              -9.8142
         9        2.0000           -0.3322964              -9.0422 (HOMO)
        10                         -0.2658239              -7.2334 (LUMO)
        11                         -0.2282801              -6.2118
        12                         -0.1449456              -3.9442
        13                         -0.1028944              -2.7999
        14                         -0.0350325              -0.9533
       ...                                ...                  ...
        20                          0.6943629              18.8946
      -------------------------------------------------------------
                  HL-Gap            0.0664725 Eh            1.8088 eV
             Fermi-level           -0.2990602 Eh           -8.1378 eV

 SCC (total)                   0 d,  0 h,  0 min,  0.001 sec
 SCC setup                      ...        0 min,  0.000 sec (  1.272%)
 Dispersion                     ...        0 min,  0.000 sec (  4.067%)
 classical contributions        ...        0 min,  0.000 sec (  2.795%)
 integral evaluation            ...        0 min,  0.000 sec (  8.115%)
 iterations                     ...        0 min,  0.001 sec ( 42.082%)
 molecular gradient             ...        0 min,  0.000 sec ( 32.408%)
 printout                       ...        0 min,  0.000 sec (  8.133%)

         :::::::::::::::::::::::::::::::::::::::::::::::::::::
         ::                     SUMMARY                     ::
         :::::::::::::::::::::::::::::::::::::::::::::::::::::
         :: total energy              -8.860622037435 Eh    ::
         :: gradient norm              0.000933787315 Eh/a0 ::
         :: HOMO-LUMO gap              1.808808512660 eV    ::
         ::.................................................::
         :: SCC energy                -9.024504623408 Eh    ::
         :: -> isotropic ES           -0.030698929523 Eh    ::
         :: -> anisotropic ES          0.010540145048 Eh    ::
         :: -> anisotropic XC          0.003306406217 Eh    ::
         :: -> dispersion             -0.003133791042 Eh    ::
         :: repulsion energy           0.163881788464 Eh    ::
         :: add. restraining           0.000000000000 Eh    ::
         :: total charge               0.000000000000 e     ::
         :::::::::::::::::::::::::::::::::::::::::::::::::::::

           -------------------------------------------------
          |                Property Printout                |
           -------------------------------------------------

    * Orbital Energies and Occupations

         #    Occupation            Energy/Eh            Energy/eV
      -------------------------------------------------------------
         1        2.0000           -0.6037251             -16.4282
         2        2.0000           -0.5479576             -14.9107
         3        2.0000           -0.4820614             -13.1176
         4        2.0000           -0.4778300             -13.0024
         5        2.0000           -0.4362323             -11.8705
         6        2.0000           -0.4254352             -11.5767
         7        2.0000           -0.3771572             -10.2630
         8        2.0000           -0.3606660              -9.8142
         9        2.0000           -0.3322964              -9.0422 (HOMO)
        10                         -0.2658239              -7.2334 (LUMO)
        11                         -0.2282801              -6.2118
        12                         -0.1449456              -3.9442
        13                         -0.1028944              -2.7999
        14                         -0.0350325              -0.9533
        15                          0.0741884               2.0188
        16                          0.1751790               4.7669
        17                          0.2128725               5.7926
        18                          0.2579892               7.0202
        19                          0.4769872              12.9795
        20                          0.6943629              18.8946
      -------------------------------------------------------------
                  HL-Gap            0.0664725 Eh            1.8088 eV
             Fermi-level           -0.2990602 Eh           -8.1378 eV

     #   Z          covCN         q      C6AA      α(0)
     1   4 Be       1.705     0.474    14.410     8.859
     2   6 C        2.730    -0.180    32.693     9.361
     3   6 C        1.994    -0.170    35.906     9.677
     4   6 C        4.543    -0.113    22.570     6.747
     5   1 H        0.925     0.003     3.000     2.709
     6   1 H        0.925     0.003     3.000     2.709
     7   1 H        0.717     0.026     2.788     2.647
     8   1 H        0.717    -0.044     4.163     3.234

 Mol. C6AA /au·bohr⁶  :        728.202734
 Mol. C8AA /au·bohr⁸  :      18492.736093
 Mol. α(0) /au        :         45.941839


Wiberg/Mayer (AO) data.
largest (>0.10) Wiberg bond orders for each atom

 ---------------------------------------------------------------------------
     #   Z sym  total        # sym  WBO       # sym  WBO       # sym  WBO
 ---------------------------------------------------------------------------
     1   4 Be   2.136 --     2 C    1.151     4 C    0.595     3 C    0.373
     2   6 C    3.701 --     3 C    1.896     1 Be   1.151     4 C    0.591
     3   6 C    3.139 --     2 C    1.896     4 C    0.787     1 Be   0.373
     4   6 C    3.923 --     5 H    0.975     6 H    0.975     3 C    0.787
                             1 Be   0.595     2 C    0.591
     5   1 H    1.000 --     4 C    0.975
     6   1 H    1.000 --     4 C    0.975
     7   1 H    0.999 --     8 H    0.941
     8   1 H    0.998 --     7 H    0.941
 ---------------------------------------------------------------------------

Topologies differ in total number of bonds
Writing topology from bond orders to xtbtopo.mol

molecular dipole:
                 x           y           z       tot (Debye)
 q only:       -0.325      -0.754      -1.602
   full:       -0.180      -1.639      -2.275       7.142
molecular quadrupole (traceless):
                xx          xy          yy          xz          yz          zz
 q only:        4.397      -1.786       3.941      -4.897      -5.061      -8.338
  q+dip:        6.797      -3.434       3.175      -6.351      -9.014      -9.972
   full:        7.742      -2.601       2.570      -6.380      -9.861     -10.312

           -------------------------------------------------
          |                Geometry Summary                 |
           -------------------------------------------------

      molecular mass/u    :       49.0761538
   center of mass at/Å    :        1.0678615       0.5456618       1.9736929
  moments of inertia/u·Å² :        0.2952976E+02   0.5754462E+02   0.7498061E+02
rotational constants/cm⁻¹ :        0.5708692E+00   0.2929489E+00   0.2248266E+00

 * 5 selected distances

     #   Z          #   Z                                           value/Å
     1   4 Be       2   6 C                                       1.5782789
     2   6 C        3   6 C                                       1.2978062
     1   4 Be       4   6 C                                       1.8568228 (max)
     4   6 C        5   1 H                                       1.0829738 (min)
     4   6 C        6   1 H                                       1.0831315

 * 3 distinct bonds (by element types)

   Z      Z             #   av. dist./Å        max./Å        min./Å
   1 H    6 C           2     1.0830526     1.0831315     1.0829738
   4 Be   6 C           2     1.7175509     1.8568228     1.5782789
   6 C    6 C           1     1.2978062     1.2978062     1.2978062


optimized geometry written to: xtbopt.xyz


           -------------------------------------------------
          | TOTAL ENERGY               -8.860622037435 Eh   |
          | GRADIENT NORM               0.000933787315 Eh/α |
          | HOMO-LUMO GAP               1.808808512660 eV   |
           -------------------------------------------------
########################################################################
Note: The following floating-point exceptions are signalling: IEEE_UNDERFLOW_FLAG
normal termination of xtb
[WARNING] Runtime exception occurred
-2- restart_readRestart: Dimension missmatch in restart file.
-1- restart_readRestart: Number of electron missmatch in restart file.
########################################################################

------------------------------------------------------------------------
 * finished run on 2025/06/07 at 03:27:54.442     
------------------------------------------------------------------------
 total:
 * wall-time:     0 d,  0 h,  0 min,  0.343 sec
 *  cpu-time:     0 d,  0 h,  0 min,  4.896 sec
 * ratio c/w:    14.265 speedup
 SCF:
 * wall-time:     0 d,  0 h,  0 min,  0.147 sec
 *  cpu-time:     0 d,  0 h,  0 min,  2.044 sec
 * ratio c/w:    13.954 speedup
 ANC optimizer:
 * wall-time:     0 d,  0 h,  0 min,  0.193 sec
 *  cpu-time:     0 d,  0 h,  0 min,  2.817 sec
 * ratio c/w:    14.573 speedup

