      -----------------------------------------------------------      
     |                   =====================                   |     
     |                           x T B                           |     
     |                   =====================                   |     
     |                         S. Grimme                         |     
     |          Mulliken Center for Theoretical Chemistry        |     
     |                    University of Bonn                     |     
      -----------------------------------------------------------      

   * xtb version 6.5.1 (conda-forge) compiled by 'runner@Mac-1657629245115.local' on 2022-07-12

   xtb is free software: you can redistribute it and/or modify it under
   the terms of the GNU Lesser General Public License as published by
   the Free Software Foundation, either version 3 of the License, or
   (at your option) any later version.
   
   xtb is distributed in the hope that it will be useful,
   but WITHOUT ANY WARRANTY; without even the implied warranty of
   MERCHANTABILITY or FITNESS FOR A PARTICULAR PURPOSE.  See the
   GNU Lesser General Public License for more details.
   
   Cite this work as:
   * C. Bannwarth, E. Caldeweyher, S. Ehlert, A. Hansen, P. Pracht,
     J. Seibert, S. Spicher, S. Grimme, WIREs Comput. Mol. Sci., 2020, 11,
     e01493. DOI: 10.1002/wcms.1493
   
   for GFN2-xTB:
   * C. Bannwarth, S. Ehlert and S. Grimme., J. Chem. Theory Comput., 2019,
     15, 1652-1671. DOI: 10.1021/acs.jctc.8b01176
   for GFN1-xTB:
   * S. Grimme, C. Bannwarth, P. Shushkov, J. Chem. Theory Comput., 2017,
     13, 1989-2009. DOI: 10.1021/acs.jctc.7b00118
   for GFN0-xTB:
   * P. Pracht, E. Caldeweyher, S. Ehlert, S. Grimme, ChemRxiv, 2019, preprint.
     DOI: 10.26434/chemrxiv.8326202.v1
   for GFN-FF:
   * S. Spicher and S. Grimme, Angew. Chem. Int. Ed., 2020, 59, 15665-15673.
     DOI: 10.1002/anie.202004239
   
   for ALPB and GBSA implicit solvation:
   * S. Ehlert, M. Stahn, S. Spicher, S. Grimme, J. Chem. Theory Comput.,
     2021, 17, 4250-4261. DOI: 10.1021/acs.jctc.1c00471
   
   for DFT-D4:
   * E. Caldeweyher, C. Bannwarth and S. Grimme, J. Chem. Phys., 2017,
     147, 034112. DOI: 10.1063/1.4993215
   * E. Caldeweyher, S. Ehlert, A. Hansen, H. Neugebauer, S. Spicher,
     C. Bannwarth and S. Grimme, J. Chem. Phys., 2019, 150, 154122.
     DOI: 10.1063/1.5090222
   * E. Caldeweyher, J.-M. Mewes, S. Ehlert and S. Grimme, Phys. Chem. Chem. Phys.
     2020, 22, 8499-8512. DOI: 10.1039/D0CP00502A
   
   for sTDA-xTB:
   * S. Grimme and C. Bannwarth, J. Chem. Phys., 2016, 145, 054103.
     DOI: 10.1063/1.4959605
   
   in the mass-spec context:
   * V. Asgeirsson, C. Bauer and S. Grimme, Chem. Sci., 2017, 8, 4879.
     DOI: 10.1039/c7sc00601b
   * J. Koopman and S. Grimme, ACS Omega 2019, 4, 12, 15120-15133.
     DOI: 10.1021/acsomega.9b02011
   
   for metadynamics refer to:
   * S. Grimme, J. Chem. Theory Comput., 2019, 155, 2847-2862
     DOI: 10.1021/acs.jctc.9b00143
   
   for SPH calculations refer to:
   * S. Spicher and S. Grimme, J. Chem. Theory Comput., 2021, 17, 1701-1714
     DOI: 10.1021/acs.jctc.0c01306
   
   with help from (in alphabetical order)
   P. Atkinson, C. Bannwarth, F. Bohle, G. Brandenburg, E. Caldeweyher
   M. Checinski, S. Dohm, S. Ehlert, S. Ehrlich, I. Gerasimov, C. Hölzer
   A. Katbashev, J. Koopman, C. Lavigne, S. Lehtola, F. März, M. Müller,
   F. Musil, H. Neugebauer, J. Pisarek, C. Plett, P. Pracht, F. Pultar,
   J. Seibert, P. Shushkov, S. Spicher, M. Stahn, M. Steiner, T. Strunk,
   J. Stückrath, T. Rose, and J. Unsleber
   
 * started run on 2025/06/07 at 03:27:53.869     

           -------------------------------------------------
          |                Calculation Setup                |
           -------------------------------------------------

          program call               : xtb BeC3H3.xyz --gfn 2 --opt
          coordinate file            : BeC3H3.xyz
          omp threads                :                    16

   ID    Z sym.   atoms
    1    4 Be     1
    2    6 C      2-4
    3    1 H      5-7

molecular fragmentation (1/2 indicates fragments):
1222222
# atoms in fragment 1/2:     1     6
 fragment masses (1/2) :        9.01       39.06
CMA distance (Bohr)    :   4.578
constraining FC (au)   :  0.0500

           -------------------------------------------------
          |                 G F N 2 - x T B                 |
           -------------------------------------------------

        Reference                      10.1021/acs.jctc.8b01176
      * Hamiltonian:
        H0-scaling (s, p, d)           1.850000    2.230000    2.230000
        zeta-weighting                 0.500000
      * Dispersion:
        s8                             2.700000
        a1                             0.520000
        a2                             5.000000
        s9                             5.000000
      * Repulsion:
        kExp                           1.500000    1.000000
        rExp                           1.000000
      * Coulomb:
        alpha                          2.000000
        third order                    shell-resolved
        anisotropic                    true
        a3                             3.000000
        a5                             4.000000
        cn-shift                       1.200000
        cn-exp                         4.000000
        max-rad                        5.000000


          ...................................................
          :                      SETUP                      :
          :.................................................:
          :  # basis functions                  19          :
          :  # atomic orbitals                  19          :
          :  # shells                           11          :
          :  # electrons                        17          :
          :  max. iterations                   250          :
          :  Hamiltonian                  GFN2-xTB          :
          :  restarted?                      false          :
          :  GBSA solvation                  false          :
          :  PC potential                    false          :
          :  electronic temp.          300.0000000     K    :
          :  accuracy                    1.0000000          :
          :  -> integral cutoff          0.2500000E+02      :
          :  -> integral neglect         0.1000000E-07      :
          :  -> SCF convergence          0.1000000E-05 Eh   :
          :  -> wf. convergence          0.1000000E-03 e    :
          :  Broyden damping             0.4000000          :
          ...................................................

 iter      E             dE          RMSdq      gap      omega  full diag
   1     13.1044450  0.131044E+02  0.282E+01    0.19       0.0  T
   2     -5.5859694 -0.186904E+02  0.158E+01    0.52       1.0  T
   3     -4.2889789  0.129699E+01  0.161E+01    0.83       1.0  T
   4     -5.8871787 -0.159820E+01  0.109E+01    0.66       1.0  T
   5     -6.6945388 -0.807360E+00  0.746E+00    0.37       1.0  T
   6     -6.8399594 -0.145421E+00  0.716E+00    0.12       1.0  T
   7     -6.5979988  0.241961E+00  0.644E+00    0.36       1.0  T
   8     16.8430460  0.234410E+02  0.304E+01    0.76       1.0  T
   9     15.8316747 -0.101137E+01  0.282E+01    0.63       1.0  T
  10     -2.5272939 -0.183590E+02  0.190E+01    0.13       1.0  T
  11     -0.6978875  0.182941E+01  0.202E+01    0.24       1.0  T
  12     10.4911516  0.111890E+02  0.245E+01    0.43       1.0  T
  13     12.1708474  0.167970E+01  0.252E+01    0.52       1.0  T
  14     12.1561377 -0.147097E-01  0.252E+01    0.52       1.0  T
  15     -6.6932662 -0.188494E+02  0.697E+00    0.23       1.0  T
  16     -6.3445863  0.348680E+00  0.813E+00    0.12       1.0  T
  17     -6.3103606  0.342257E-01  0.831E+00    0.12       1.0  T
  18     -6.2264220  0.839386E-01  0.884E+00    0.10       1.0  T
  19     -6.2073629  0.190591E-01  0.962E+00    0.14       1.0  T
  20     -6.2113751 -0.401219E-02  0.101E+01    0.19       1.0  T
  21     -6.2600168 -0.486417E-01  0.898E+00    0.24       1.0  T
  22     -6.3121631 -0.521463E-01  0.825E+00    0.28       1.0  T
  23     -6.3944689 -0.823057E-01  0.760E+00    0.28       1.0  T
  24     -6.5047259 -0.110257E+00  0.723E+00    0.25       1.0  T
  25     -6.6198992 -0.115173E+00  0.696E+00    0.25       1.0  T
  26     -6.6226795 -0.278034E-02  0.700E+00    0.25       1.0  T
  27     -6.7080073 -0.853278E-01  0.674E+00    0.22       1.0  T
  28     -7.5064977 -0.798490E+00  0.631E+00    0.05       1.0  T
  29     -6.9173093  0.589188E+00  0.675E+00    0.19       1.0  T
  30     -6.6908158  0.226494E+00  0.697E+00    0.24       1.0  T
  31     -6.9534502 -0.262634E+00  0.676E+00    0.19       1.0  T
  32     -7.5352722 -0.581822E+00  0.641E+00    0.05       1.0  T
  33     -7.3527911  0.182481E+00  0.636E+00    0.08       1.0  T
  34     -7.1453837  0.207407E+00  0.105E+01    0.64       1.0  T
  35     -7.0789078  0.664759E-01  0.106E+01    0.63       1.0  T
  36     -7.0454359  0.334719E-01  0.107E+01    0.62       1.0  T
  37     -7.4446694 -0.399234E+00  0.994E+00    0.72       1.0  T
  38     -7.4799067 -0.352373E-01  0.987E+00    0.73       1.0  T
  39      6.3606435  0.138406E+02  0.224E+01    0.15       1.0  T
  40     -6.5631392 -0.129238E+02  0.749E+00    0.22       1.0  T
  41     -7.7727016 -0.120956E+01  0.866E+00    0.58       1.0  T
  42     -7.7546134  0.180882E-01  0.811E+00    0.34       1.0  T
  43     -7.6520599  0.102554E+00  0.101E+01    0.77       1.0  T
  44     -2.9500348  0.470203E+01  0.186E+01    0.23       1.0  T
  45     -2.9680600 -0.180252E-01  0.185E+01    0.24       1.0  T
  46     -7.2521478 -0.428409E+01  0.737E+00    0.09       1.0  T
  47     -7.7684400 -0.516292E+00  0.860E+00    0.42       1.0  T
  48     -7.7726027 -0.416270E-02  0.880E+00    0.52       1.0  T
  49     -7.7544831  0.181197E-01  0.835E+00    0.36       1.0  T
  50     -7.6980900  0.563930E-01  0.802E+00    0.21       1.0  T
  51     -7.6904720  0.761800E-02  0.801E+00    0.21       1.0  T
  52     -7.7427083 -0.522363E-01  0.824E+00    0.39       1.0  T
  53     -7.7537156 -0.110073E-01  0.841E+00    0.45       1.0  T
  54     -7.7449737  0.874193E-02  0.833E+00    0.41       1.0  T
  55     -7.7575368 -0.125631E-01  0.875E+00    0.57       1.0  T
  56     -7.7253915  0.321453E-01  0.829E+00    0.40       1.0  T
  57     -7.7476962 -0.223047E-01  0.862E+00    0.52       1.0  T
  58     -7.7281168  0.195794E-01  0.841E+00    0.43       1.0  T
  59     -7.7516687 -0.235519E-01  0.888E+00    0.60       1.0  T
  60     -7.7486808  0.298794E-02  0.876E+00    0.56       1.0  T
  61     -7.7514079 -0.272707E-02  0.889E+00    0.59       1.0  T
  62     -7.7482873  0.312058E-02  0.918E+00    0.67       1.0  T
  63     -7.7414208  0.686647E-02  0.932E+00    0.70       1.0  T
  64     -7.7235549  0.178659E-01  0.958E+00    0.74       1.0  T
  65     -7.6382046  0.853503E-01  0.102E+01    0.80       1.0  T
  66     -7.3435155  0.294689E+00  0.109E+01    0.72       1.0  T
  67     -7.5971652 -0.253650E+00  0.106E+01    0.81       1.0  T
  68     -7.4764578  0.120707E+00  0.108E+01    0.77       1.0  T
  69     -7.3445911  0.131867E+00  0.109E+01    0.72       1.0  T
  70     -7.6686692 -0.324078E+00  0.101E+01    0.81       1.0  T
  71     -7.6320313  0.366379E-01  0.104E+01    0.82       1.0  T
  72     -7.6420605 -0.100293E-01  0.103E+01    0.82       1.0  T
  73     -7.6759490 -0.338885E-01  0.101E+01    0.80       1.0  T
  74     -7.6924672 -0.165181E-01  0.999E+00    0.79       1.0  T
  75     -7.6967915 -0.432434E-02  0.100E+01    0.79       1.0  T
  76     -7.6970297 -0.238201E-03  0.101E+01    0.79       1.0  T
  77     -7.6967021  0.327618E-03  0.101E+01    0.79       1.0  T
  78     -7.6927426  0.395950E-02  0.101E+01    0.79       1.0  T
  79     -7.6926671  0.754855E-04  0.100E+01    0.78       1.0  T
  80     -7.6923736  0.293468E-03  0.100E+01    0.78       1.0  T
  81     -7.6682375  0.241361E-01  0.102E+01    0.80       1.0  T
  82     -7.6413566  0.268809E-01  0.104E+01    0.81       1.0  T
  83     -7.6349181  0.643855E-02  0.104E+01    0.81       1.0  T
  84     -7.6359534 -0.103529E-02  0.104E+01    0.81       1.0  T
  85     -7.3862336  0.249720E+00  0.108E+01    0.71       1.0  T
  86     -7.6320612 -0.245828E+00  0.102E+01    0.79       1.0  T
  87     -7.1552823  0.476779E+00  0.109E+01    0.63       1.0  T
  88     -7.6776667 -0.522384E+00  0.838E+00    0.48       1.0  T
  89     -2.4069786  0.527069E+01  0.192E+01    0.18       1.0  T
  90     -6.7242154 -0.431724E+01  0.706E+00    0.13       1.0  T
  91     10.2675500  0.169918E+02  0.231E+01    0.44       1.0  T
  92     -6.4615924 -0.167291E+02  0.845E+00    0.17       1.0  T
  93     -6.5591795 -0.975870E-01  0.666E+00    0.20       1.0  T
  94     -7.1319674 -0.572788E+00  0.660E+00    0.08       1.0  T
  95     -7.7350807 -0.603113E+00  0.714E+00    0.34       1.0  T
  96     -7.6428514  0.922293E-01  0.676E+00    0.24       1.0  T
  97     -7.7103039 -0.674524E-01  0.683E+00    0.27       1.0  T
  98     -7.7627528 -0.524489E-01  0.730E+00    0.43       1.0  T
  99     -7.7693947 -0.664187E-02  0.783E+00    0.52       1.0  T
 100     -7.7634753  0.591932E-02  0.817E+00    0.57       1.0  T
 101     -7.7637517 -0.276325E-03  0.818E+00    0.57       1.0  T
 102     -7.7549853  0.876641E-02  0.835E+00    0.60       1.0  T
 103     -7.7497671  0.521819E-02  0.843E+00    0.61       1.0  T
 104     -7.7375897  0.121773E-01  0.856E+00    0.62       1.0  T
 105     -7.7342009  0.338879E-02  0.860E+00    0.63       1.0  T
 106     -7.7320502  0.215076E-02  0.862E+00    0.63       1.0  T
 107     -7.7199901  0.120601E-01  0.874E+00    0.64       1.0  T
 108     -7.7156681  0.432208E-02  0.877E+00    0.64       1.0  T
 109     -7.7163962 -0.728128E-03  0.876E+00    0.64       1.0  T
 110     -7.7345453 -0.181491E-01  0.863E+00    0.62       1.0  T
 111     -7.7506768 -0.161315E-01  0.851E+00    0.60       1.0  T
 112     -7.7717711 -0.210943E-01  0.827E+00    0.57       1.0  T
 113     -7.7873425 -0.155713E-01  0.797E+00    0.51       1.0  T
 114     -7.7895494 -0.220690E-02  0.769E+00    0.45       1.0  T
 115     -7.7850081  0.454126E-02  0.745E+00    0.41       1.0  T
 116     -7.7766516  0.835655E-02  0.717E+00    0.37       1.0  T
 117     -7.7705672  0.608434E-02  0.693E+00    0.33       1.0  T
 118     -7.7488845  0.216827E-01  0.665E+00    0.27       1.0  T
 119     -7.7602498 -0.113653E-01  0.671E+00    0.27       1.0  T
 120     -7.6902385  0.700113E-01  0.634E+00    0.19       1.0  T
 121     -7.6182655  0.719730E-01  0.628E+00    0.15       1.0  T
 122     -7.4339090  0.184357E+00  0.650E+00    0.12       1.0  T
 123     -7.2077141  0.226195E+00  0.689E+00    0.13       1.0  T
 124     -7.2731005 -0.653864E-01  0.680E+00    0.12       1.0  T
 125     -7.8013764 -0.528276E+00  0.744E+00    0.42       1.0  T
 126     -7.7767442  0.246322E-01  0.671E+00    0.32       1.0  T
 127     -7.7787143 -0.197005E-02  0.783E+00    0.54       1.0  T
 128     -7.7835892 -0.487490E-02  0.780E+00    0.52       1.0  T
 129     -7.7722749  0.113143E-01  0.798E+00    0.54       1.0  T
 130     -7.7770486 -0.477369E-02  0.790E+00    0.53       1.0  T
 131     -7.7831066 -0.605802E-02  0.776E+00    0.53       1.0  T
 132     -7.7900279 -0.692129E-02  0.761E+00    0.51       1.0  T
 133     -7.7954405 -0.541262E-02  0.750E+00    0.50       1.0  T
 134     -7.7971654 -0.172490E-02  0.746E+00    0.50       1.0  T
 135     -7.7975887 -0.423268E-03  0.745E+00    0.50       1.0  T
 136     -7.8030751 -0.548645E-02  0.720E+00    0.47       1.0  T
 137     -7.8025847  0.490464E-03  0.707E+00    0.47       1.0  T
 138     -7.8033297 -0.744992E-03  0.699E+00    0.47       1.0  T
 139     -7.8066583 -0.332869E-02  0.686E+00    0.46       1.0  T
 140     -7.8123583 -0.569998E-02  0.650E+00    0.44       1.0  T
 141     -7.8093137  0.304460E-02  0.625E+00    0.46       1.0  T
 142     -7.8068657  0.244803E-02  0.607E+00    0.47       1.0  T
 143     -7.8172313 -0.103656E-01  0.556E+00    0.45       1.0  T
 144     -7.8277768 -0.105455E-01  0.485E+00    0.39       1.0  T
 145     -7.8247627  0.301413E-02  0.411E+00    0.30       1.0  T
 146     -7.8330715 -0.830883E-02  0.411E+00    0.33       1.0  T
 147     -7.7258608  0.107211E+00  0.308E+00    0.18       1.0  T
 148     -7.8247453 -0.988845E-01  0.318E+00    0.24       1.0  T
 149     -7.8184392  0.630619E-02  0.293E+00    0.24       1.0  T
 150     -7.7893813  0.290578E-01  0.268E+00    0.20       1.0  T
 151     -7.8292081 -0.398268E-01  0.294E+00    0.25       1.0  T
 152     -7.8382979 -0.908977E-02  0.319E+00    0.29       1.0  T
 153     -7.8393469 -0.104904E-02  0.324E+00    0.30       1.0  T
 154     -7.8399360 -0.589043E-03  0.349E+00    0.35       1.0  T
 155     -7.8400107 -0.747552E-04  0.320E+00    0.31       1.0  T
 156     -7.8394309  0.579818E-03  0.349E+00    0.36       1.0  T
 157     -7.8392373  0.193600E-03  0.300E+00    0.29       1.0  T
 158     -7.8411190 -0.188172E-02  0.326E+00    0.34       1.0  T
 159     -7.8397788  0.134028E-02  0.290E+00    0.29       1.0  T
 160     -7.8416864 -0.190765E-02  0.307E+00    0.32       1.0  T
 161     -7.8413051  0.381258E-03  0.287E+00    0.30       1.0  T
 162     -7.8417099 -0.404770E-03  0.299E+00    0.34       1.0  T
 163     -7.8419931 -0.283173E-03  0.286E+00    0.33       1.0  T
 164     -7.8351507  0.684244E-02  0.304E+00    0.40       1.0  T
 165     -7.8337134  0.143721E-02  0.291E+00    0.40       1.0  T
 166     -7.8132432  0.204702E-01  0.314E+00    0.48       1.0  T
 167     -7.8098910  0.335220E-02  0.306E+00    0.49       1.0  T
 168     -7.7786743  0.312168E-01  0.331E+00    0.55       1.0  T
 169     -7.7691415  0.953278E-02  0.333E+00    0.57       1.0  T
 170     -7.7412304  0.279111E-01  0.349E+00    0.60       1.0  T
 171     -7.7303730  0.108574E-01  0.354E+00    0.62       1.0  T
 172     -7.7266878  0.368521E-02  0.355E+00    0.62       1.0  T
 173     -7.7281664 -0.147867E-02  0.353E+00    0.62       1.0  T
 174     -7.7293179 -0.115146E-02  0.353E+00    0.62       1.0  T
 175     -7.7292896  0.282491E-04  0.353E+00    0.62       1.0  T
 176     -7.7277992  0.149049E-02  0.354E+00    0.62       1.0  T
 177     -7.7317314 -0.393224E-02  0.351E+00    0.62       1.0  T
 178     -7.7429556 -0.112242E-01  0.344E+00    0.61       1.0  T
 179     -7.7490794 -0.612379E-02  0.340E+00    0.61       1.0  T
 180     -7.7512339 -0.215450E-02  0.338E+00    0.60       1.0  T
 181     -7.7517755 -0.541597E-03  0.338E+00    0.60       1.0  T
 182     -7.7523794 -0.603947E-03  0.338E+00    0.60       1.0  T
 183     -7.7527125 -0.333072E-03  0.339E+00    0.60       1.0  T
 184     -7.7515655  0.114703E-02  0.339E+00    0.60       1.0  T
 185     -7.7464871  0.507840E-02  0.341E+00    0.61       1.0  T
 186     -7.7412336  0.525351E-02  0.342E+00    0.61       1.0  T
 187     -7.7383893  0.284426E-02  0.342E+00    0.62       1.0  T
 188     -7.7427698 -0.438046E-02  0.335E+00    0.61       1.0  T
 189     -7.7556473 -0.128775E-01  0.322E+00    0.60       1.0  T
 190     -7.7719508 -0.163036E-01  0.307E+00    0.58       1.0  T
 191     -7.7859359 -0.139851E-01  0.294E+00    0.55       1.0  T
 192     -7.7950990 -0.916307E-02  0.285E+00    0.53       1.0  T
 193     -7.8011036 -0.600456E-02  0.279E+00    0.52       1.0  T
 194     -7.8047153 -0.361177E-02  0.275E+00    0.51       1.0  T
 195     -7.8086330 -0.391765E-02  0.267E+00    0.49       1.0  T
 196     -7.7985818  0.100512E-01  0.276E+00    0.52       1.0  T
 197     -7.8100269 -0.114451E-01  0.251E+00    0.49       1.0  T
 198     -7.7824273  0.275996E-01  0.287E+00    0.55       1.0  T
 199     -7.8097956 -0.273682E-01  0.241E+00    0.49       1.0  T
 200     -7.7918099  0.179856E-01  0.269E+00    0.53       1.0  T
 201     -7.8111377 -0.193278E-01  0.236E+00    0.49       1.0  T
 202     -7.8050230  0.611470E-02  0.246E+00    0.50       1.0  T
 203     -7.8160512 -0.110282E-01  0.225E+00    0.47       1.0  T
 204     -7.8135870  0.246427E-02  0.228E+00    0.48       1.0  T
 205     -7.8222307 -0.864370E-02  0.206E+00    0.45       1.0  T
 206     -7.8184092  0.382147E-02  0.211E+00    0.46       1.0  T
 207     -7.8207668 -0.235765E-02  0.202E+00    0.46       1.0  T
 208     -7.8169212  0.384562E-02  0.207E+00    0.47       1.0  T
 209     -7.8169685 -0.473058E-04  0.204E+00    0.47       1.0  T
 210     -7.8160564  0.912150E-03  0.205E+00    0.48       1.0  T
 211     -7.8167985 -0.742137E-03  0.202E+00    0.47       1.0  T
 212     -7.8175271 -0.728551E-03  0.200E+00    0.47       1.0  T
 213     -7.8185914 -0.106436E-02  0.198E+00    0.47       1.0  T
 214     -7.8192290 -0.637623E-03  0.197E+00    0.47       1.0  T
 215     -7.8196947 -0.465629E-03  0.196E+00    0.46       1.0  T
 216     -7.8198466 -0.151882E-03  0.196E+00    0.46       1.0  T
 217     -7.8196426  0.203920E-03  0.196E+00    0.47       1.0  T
 218     -7.8191045  0.538185E-03  0.196E+00    0.47       1.0  T
 219     -7.8188750  0.229501E-03  0.196E+00    0.47       1.0  T
 220     -7.8194455 -0.570562E-03  0.194E+00    0.47       1.0  T
 221     -7.8207474 -0.130188E-02  0.191E+00    0.47       1.0  T
 222     -7.8219680 -0.122061E-02  0.188E+00    0.46       1.0  T
 223     -7.8230386 -0.107055E-02  0.186E+00    0.46       1.0  T
 224     -7.8240275 -0.988942E-03  0.185E+00    0.45       1.0  T
 225     -7.8250099 -0.982434E-03  0.183E+00    0.45       1.0  T
 226     -7.8259807 -0.970809E-03  0.181E+00    0.44       1.0  T
 227     -7.8269038 -0.923079E-03  0.179E+00    0.44       1.0  T
 228     -7.8277288 -0.824935E-03  0.178E+00    0.44       1.0  T
 229     -7.8284234 -0.694662E-03  0.177E+00    0.43       1.0  T
 230     -7.8289619 -0.538513E-03  0.176E+00    0.43       1.0  T
 231     -7.8293204 -0.358427E-03  0.176E+00    0.43       1.0  T
 232     -7.8294815 -0.161130E-03  0.176E+00    0.43       1.0  T
 233     -7.8294663  0.151818E-04  0.176E+00    0.43       1.0  T
 234     -7.8293505  0.115850E-03  0.176E+00    0.43       1.0  T
 235     -7.8292182  0.132232E-03  0.177E+00    0.43       1.0  T
 236     -7.8290934  0.124849E-03  0.177E+00    0.43       1.0  T
 237     -7.8289486  0.144745E-03  0.177E+00    0.44       1.0  T
 238     -7.8290033 -0.546234E-04  0.174E+00    0.44       1.0  T
 239     -7.8302401 -0.123680E-02  0.164E+00    0.44       1.0  T
 240     -7.8327834 -0.254340E-02  0.147E+00    0.43       1.0  T
 241     -7.8357819 -0.299843E-02  0.126E+00    0.42       1.0  T
 242     -7.8383396 -0.255771E-02  0.104E+00    0.41       1.0  T
 243     -7.8402051 -0.186555E-02  0.842E-01    0.41       1.0  T
 244     -7.8415367 -0.133156E-02  0.665E-01    0.40       1.0  T
 245     -7.8424884 -0.951666E-03  0.511E-01    0.39       1.0  T
 246     -7.8431381 -0.649711E-03  0.384E-01    0.39       1.0  T
 247     -7.8435594 -0.421315E-03  0.282E-01    0.38       1.0  T
 248     -7.8438240 -0.264646E-03  0.201E-01    0.38       1.0  T
 249     -7.8439801 -0.156061E-03  0.140E-01    0.37       1.0  T
 250     -7.8440643 -0.842319E-04  0.941E-02    0.37       1.0  T

   *** convergence criteria cannot be satisfied within 250 iterations ***

         #    Occupation            Energy/Eh            Energy/eV
      -------------------------------------------------------------
         1        2.0000           -0.6499695             -17.6866
       ...           ...                  ...                  ...
         3        2.0000           -0.5003464             -13.6151
         4        2.0000           -0.4827107             -13.1352
         5        2.0000           -0.3655262              -9.9465
         6        2.0000           -0.3415675              -9.2945
         7        2.0000           -0.3280872              -8.9277
         8        2.0000           -0.3093436              -8.4177
         9        0.9992           -0.2765378              -7.5250 (HOMO)
        10        0.0008           -0.2629384              -7.1549 (LUMO)
        11                         -0.2541608              -6.9161
        12                         -0.2151237              -5.8538
        13                         -0.1779388              -4.8420
        14                         -0.1525700              -4.1516
       ...                                ...                  ...
        19                          0.1276720               3.4741
      -------------------------------------------------------------
                  HL-Gap            0.0135994 Eh            0.3701 eV
             Fermi-level           -0.2813394 Eh           -7.6556 eV

 SCC (total)                   0 d,  0 h,  0 min,  0.213 sec
Note: The following floating-point exceptions are signalling: IEEE_UNDERFLOW_FLAG
ERROR STOP 

Error termination. Backtrace:
#0  0x1057e4327
#1  0x1057e5147
#2  0x1057e672b
#3  0x10526c2e7
#4  0x104984ce7
#5  0x10498f3bf
abnormal termination of xtb
 SCC setup                      ...        0 min,  0.000 sec (  0.026%)
 Dispersion                     ...        0 min,  0.000 sec (  0.051%)
 classical contributions        ...        0 min,  0.000 sec (  0.029%)
 integral evaluation            ...        0 min,  0.000 sec (  0.064%)
 iterations                     ...        0 min,  0.211 sec ( 99.518%)
 molecular gradient             ...        0 min,  0.001 sec (  0.281%)
 printout                       ...        0 min,  0.000 sec (  0.015%)

########################################################################
[ERROR] Program stopped due to fatal error
-6- Single point calculation terminated
-5- xtb_calculator_singlepoint: Electronic structure method terminated
-4- scf: Self consistent charge iterator did not converge
-3- restart_readRestart: Dimension missmatch in restart file.
-2- restart_readRestart: Multiplicity missmatch in restart file.
-1- restart_readRestart: Number of electron missmatch in restart file.
########################################################################
