      -----------------------------------------------------------      
     |                   =====================                   |     
     |                           x T B                           |     
     |                   =====================                   |     
     |                         S. Grimme                         |     
     |          Mulliken Center for Theoretical Chemistry        |     
     |                    University of Bonn                     |     
      -----------------------------------------------------------      

   * xtb version 6.5.1 (conda-forge) compiled by 'runner@Mac-1657629245115.local' on 2022-07-12

   xtb is free software: you can redistribute it and/or modify it under
   the terms of the GNU Lesser General Public License as published by
   the Free Software Foundation, either version 3 of the License, or
   (at your option) any later version.
   
   xtb is distributed in the hope that it will be useful,
   but WITHOUT ANY WARRANTY; without even the implied warranty of
   MERCHANTABILITY or FITNESS FOR A PARTICULAR PURPOSE.  See the
   GNU Lesser General Public License for more details.
   
   Cite this work as:
   * C. Bannwarth, E. Caldeweyher, S. Ehlert, A. Hansen, P. Pracht,
     J. Seibert, S. Spicher, S. Grimme, WIREs Comput. Mol. Sci., 2020, 11,
     e01493. DOI: 10.1002/wcms.1493
   
   for GFN2-xTB:
   * C. Bannwarth, S. Ehlert and S. Grimme., J. Chem. Theory Comput., 2019,
     15, 1652-1671. DOI: 10.1021/acs.jctc.8b01176
   for GFN1-xTB:
   * S. Grimme, C. Bannwarth, P. Shushkov, J. Chem. Theory Comput., 2017,
     13, 1989-2009. DOI: 10.1021/acs.jctc.7b00118
   for GFN0-xTB:
   * P. Pracht, E. Caldeweyher, S. Ehlert, S. Grimme, ChemRxiv, 2019, preprint.
     DOI: 10.26434/chemrxiv.8326202.v1
   for GFN-FF:
   * S. Spicher and S. Grimme, Angew. Chem. Int. Ed., 2020, 59, 15665-15673.
     DOI: 10.1002/anie.202004239
   
   for ALPB and GBSA implicit solvation:
   * S. Ehlert, M. Stahn, S. Spicher, S. Grimme, J. Chem. Theory Comput.,
     2021, 17, 4250-4261. DOI: 10.1021/acs.jctc.1c00471
   
   for DFT-D4:
   * E. Caldeweyher, C. Bannwarth and S. Grimme, J. Chem. Phys., 2017,
     147, 034112. DOI: 10.1063/1.4993215
   * E. Caldeweyher, S. Ehlert, A. Hansen, H. Neugebauer, S. Spicher,
     C. Bannwarth and S. Grimme, J. Chem. Phys., 2019, 150, 154122.
     DOI: 10.1063/1.5090222
   * E. Caldeweyher, J.-M. Mewes, S. Ehlert and S. Grimme, Phys. Chem. Chem. Phys.
     2020, 22, 8499-8512. DOI: 10.1039/D0CP00502A
   
   for sTDA-xTB:
   * S. Grimme and C. Bannwarth, J. Chem. Phys., 2016, 145, 054103.
     DOI: 10.1063/1.4959605
   
   in the mass-spec context:
   * V. Asgeirsson, C. Bauer and S. Grimme, Chem. Sci., 2017, 8, 4879.
     DOI: 10.1039/c7sc00601b
   * J. Koopman and S. Grimme, ACS Omega 2019, 4, 12, 15120-15133.
     DOI: 10.1021/acsomega.9b02011
   
   for metadynamics refer to:
   * S. Grimme, J. Chem. Theory Comput., 2019, 155, 2847-2862
     DOI: 10.1021/acs.jctc.9b00143
   
   for SPH calculations refer to:
   * S. Spicher and S. Grimme, J. Chem. Theory Comput., 2021, 17, 1701-1714
     DOI: 10.1021/acs.jctc.0c01306
   
   with help from (in alphabetical order)
   P. Atkinson, C. Bannwarth, F. Bohle, G. Brandenburg, E. Caldeweyher
   M. Checinski, S. Dohm, S. Ehlert, S. Ehrlich, I. Gerasimov, C. Hölzer
   A. Katbashev, J. Koopman, C. Lavigne, S. Lehtola, F. März, M. Müller,
   F. Musil, H. Neugebauer, J. Pisarek, C. Plett, P. Pracht, F. Pultar,
   J. Seibert, P. Shushkov, S. Spicher, M. Stahn, M. Steiner, T. Strunk,
   J. Stückrath, T. Rose, and J. Unsleber
   
 * started run on 2025/06/07 at 03:27:54.965     

           -------------------------------------------------
          |                Calculation Setup                |
           -------------------------------------------------

          program call               : xtb BeC3H6.xyz --gfn 2 --opt
          coordinate file            : BeC3H6.xyz
          omp threads                :                    16

   ID    Z sym.   atoms
    1    4 Be     1
    2    6 C      2-4
    3    1 H      5-10

molecular fragmentation (1/2 indicates fragments):
1222222222
# atoms in fragment 1/2:     1     9
 fragment masses (1/2) :        9.01       42.08
CMA distance (Bohr)    :   4.937
constraining FC (au)   :  0.0500

           -------------------------------------------------
          |                 G F N 2 - x T B                 |
           -------------------------------------------------

        Reference                      10.1021/acs.jctc.8b01176
      * Hamiltonian:
        H0-scaling (s, p, d)           1.850000    2.230000    2.230000
        zeta-weighting                 0.500000
      * Dispersion:
        s8                             2.700000
        a1                             0.520000
        a2                             5.000000
        s9                             5.000000
      * Repulsion:
        kExp                           1.500000    1.000000
        rExp                           1.000000
      * Coulomb:
        alpha                          2.000000
        third order                    shell-resolved
        anisotropic                    true
        a3                             3.000000
        a5                             4.000000
        cn-shift                       1.200000
        cn-exp                         4.000000
        max-rad                        5.000000


          ...................................................
          :                      SETUP                      :
          :.................................................:
          :  # basis functions                  22          :
          :  # atomic orbitals                  22          :
          :  # shells                           14          :
          :  # electrons                        20          :
          :  max. iterations                   250          :
          :  Hamiltonian                  GFN2-xTB          :
          :  restarted?                      false          :
          :  GBSA solvation                  false          :
          :  PC potential                    false          :
          :  electronic temp.          300.0000000     K    :
          :  accuracy                    1.0000000          :
          :  -> integral cutoff          0.2500000E+02      :
          :  -> integral neglect         0.1000000E-07      :
          :  -> SCF convergence          0.1000000E-05 Eh   :
          :  -> wf. convergence          0.1000000E-03 e    :
          :  Broyden damping             0.4000000          :
          ...................................................

 iter      E             dE          RMSdq      gap      omega  full diag
   1     12.0888206  0.120888E+02  0.242E+01    0.67       0.0  T
   2     -5.7798533 -0.178687E+02  0.150E+01    0.25       1.0  T
   3     -7.5316303 -0.175178E+01  0.104E+01    0.23       1.0  T
   4     -7.1067602  0.424870E+00  0.103E+01    0.83       1.0  T
   5     -6.8710524  0.235708E+00  0.104E+01    0.29       1.0  T
   6     -8.4880180 -0.161697E+01  0.832E+00    0.49       1.0  T
   7     -8.6194145 -0.131397E+00  0.618E+00    0.35       1.0  T
   8     -8.2423607  0.377054E+00  0.579E+00    0.23       1.0  T
   9      8.5500285  0.167924E+02  0.196E+01    0.64       1.0  T
  10     -9.2064086 -0.177564E+02  0.603E+00    0.08       1.0  T
  11     -8.6291330  0.577276E+00  0.519E+00    0.60       1.0  T
  12     -7.9894852  0.639648E+00  0.116E+01    0.14       1.0  T
  13     -8.2766900 -0.287205E+00  0.113E+01    0.15       1.0  T
  14     -7.0039447  0.127275E+01  0.115E+01    0.12       1.0  T
  15      0.5692358  0.757318E+01  0.152E+01    0.14       1.0  T
  16     -0.2892514 -0.858487E+00  0.148E+01    0.12       1.0  T
  17     -0.2905386 -0.128724E-02  0.148E+01    0.12       1.0  T
  18     -8.7419923 -0.845145E+01  0.954E+00    0.11       1.0  T
  19     -8.4982968  0.243696E+00  0.104E+01    0.14       1.0  T
  20     -9.1300682 -0.631771E+00  0.414E+00    0.65       1.0  T
  21     -9.0363637  0.937044E-01  0.415E+00    0.65       1.0  T
  22     -9.0278518  0.851195E-02  0.411E+00    0.65       1.0  T
  23     -8.5793485  0.448503E+00  0.930E+00    0.10       1.0  T
  24     -8.1678124  0.411536E+00  0.101E+01    0.11       1.0  T
  25     -8.1571479  0.106645E-01  0.100E+01    0.10       1.0  T
  26     -8.2024510 -0.453031E-01  0.994E+00    0.10       1.0  T
  27     -8.4856804 -0.283229E+00  0.896E+00    0.08       1.0  T
  28     -8.4110563  0.746241E-01  0.913E+00    0.08       1.0  T
  29     -8.4359106 -0.248543E-01  0.906E+00    0.08       1.0  T
  30     -8.4612257 -0.253151E-01  0.895E+00    0.08       1.0  T
  31     -8.4572106  0.401511E-02  0.895E+00    0.08       1.0  T
  32     -8.5793713 -0.122161E+00  0.807E+00    0.06       1.0  T
  33     -8.8251508 -0.245779E+00  0.602E+00    0.02       1.0  T
  34     -8.6659700  0.159181E+00  0.708E+00    0.05       1.0  T
  35     -9.2483854 -0.582415E+00  0.321E+00    0.09       1.0  T
  36     -8.4889022  0.759483E+00  0.765E+00    0.10       1.0  T
  37     -9.1252379 -0.636336E+00  0.323E+00    0.06       1.0  T
  38     -8.9886135  0.136624E+00  0.391E+00    0.04       1.0  T
  39     -9.2725757 -0.283962E+00  0.282E+00    0.11       1.0  T
  40     -8.8118518  0.460724E+00  0.510E+00    0.04       1.0  T
  41     -9.1665492 -0.354697E+00  0.272E+00    0.07       1.0  T
  42     -8.9131275  0.253422E+00  0.420E+00    0.03       1.0  T
  43     -8.9902396 -0.771122E-01  0.358E+00    0.04       1.0  T
  44     -9.1005466 -0.110307E+00  0.292E+00    0.05       1.0  T
  45     -9.1325328 -0.319862E-01  0.287E+00    0.06       1.0  T
  46     -9.2151663 -0.826335E-01  0.285E+00    0.08       1.0  T
  47     -9.2156553 -0.489016E-03  0.285E+00    0.08       1.0  T
  48     -9.2286583 -0.130030E-01  0.290E+00    0.08       1.0  T
  49     -8.9245570  0.304101E+00  0.443E+00    0.06       1.0  T
  50     -8.9706422 -0.460852E-01  0.404E+00    0.04       1.0  T
  51     -8.9352701  0.353721E-01  0.435E+00    0.05       1.0  T
  52     -8.9425035 -0.723346E-02  0.428E+00    0.05       1.0  T
  53     -9.0604089 -0.117905E+00  0.338E+00    0.04       1.0  T
  54     -9.0361130  0.242958E-01  0.354E+00    0.04       1.0  T
  55     -8.9900967  0.460163E-01  0.382E+00    0.03       1.0  T
  56     -9.0366774 -0.465807E-01  0.342E+00    0.03       1.0  T
  57     -9.0384170 -0.173957E-02  0.332E+00    0.03       1.0  T
  58     -9.0613263 -0.229093E-01  0.305E+00    0.04       1.0  T
  59     -9.1991041 -0.137778E+00  0.251E+00    0.07       1.0  T
  60     -9.2650128 -0.659087E-01  0.265E+00    0.10       1.0  T
  61     -9.2900069 -0.249941E-01  0.288E+00    0.11       1.0  T
  62     -9.3018625 -0.118556E-01  0.309E+00    0.12       1.0  T
  63     -9.3013681  0.494389E-03  0.314E+00    0.12       1.0  T
  64     -9.3048185 -0.345040E-02  0.318E+00    0.12       1.0  T
  65     -9.3135434 -0.872492E-02  0.337E+00    0.12       1.0  T
  66     -9.3146346 -0.109115E-02  0.345E+00    0.12       1.0  T
  67     -9.3181095 -0.347496E-02  0.354E+00    0.12       1.0  T
  68     -9.3157943  0.231522E-02  0.359E+00    0.12       1.0  T
  69     -9.3134695  0.232476E-02  0.356E+00    0.11       1.0  T
  70     -9.3134678  0.173001E-05  0.356E+00    0.11       1.0  T
  71     -9.3127300  0.737821E-03  0.355E+00    0.11       1.0  T
  72     -9.3125345  0.195502E-03  0.356E+00    0.11       1.0  T
  73     -9.3185726 -0.603816E-02  0.364E+00    0.12       1.0  T
  74     -9.3196925 -0.111986E-02  0.369E+00    0.12       1.0  T
  75     -9.3204788 -0.786315E-03  0.370E+00    0.11       1.0  T
  76     -9.3167142  0.376459E-02  0.357E+00    0.10       1.0  T
  77     -9.3205703 -0.385611E-02  0.357E+00    0.10       1.0  T
  78     -9.3205553  0.150813E-04  0.359E+00    0.10       1.0  T
  79     -9.3276870 -0.713170E-02  0.375E+00    0.10       1.0  T
  80     -9.3283300 -0.643065E-03  0.378E+00    0.10       1.0  T
  81     -9.3289988 -0.668819E-03  0.380E+00    0.10       1.0  T
  82     -9.3290825 -0.836097E-04  0.380E+00    0.10       1.0  T
  83     -9.3298561 -0.773684E-03  0.382E+00    0.10       1.0  T
  84     -9.3311620 -0.130588E-02  0.385E+00    0.11       1.0  T
  85     -9.3316882 -0.526140E-03  0.386E+00    0.11       1.0  T
  86     -9.3294124  0.227574E-02  0.380E+00    0.11       1.0  T
  87     -9.3222481  0.716428E-02  0.366E+00    0.10       1.0  T
  88     -9.3183699  0.387823E-02  0.361E+00    0.10       1.0  T
  89     -9.3182833  0.866132E-04  0.363E+00    0.10       1.0  T
  90     -9.3183644 -0.811123E-04  0.364E+00    0.10       1.0  T
  91     -9.3176737  0.690694E-03  0.363E+00    0.10       1.0  T
  92     -9.3175852  0.884903E-04  0.367E+00    0.11       1.0  T
  93     -9.3153205  0.226473E-02  0.367E+00    0.11       1.0  T
  94     -9.3161535 -0.832964E-03  0.370E+00    0.11       1.0  T
  95     -9.3160119  0.141584E-03  0.370E+00    0.11       1.0  T
  96     -9.3151763  0.835612E-03  0.370E+00    0.11       1.0  T
  97     -9.3153015 -0.125277E-03  0.369E+00    0.11       1.0  T
  98     -9.3119802  0.332131E-02  0.364E+00    0.11       1.0  T
  99     -9.3169561 -0.497588E-02  0.373E+00    0.11       1.0  T
 100     -9.3180168 -0.106070E-02  0.376E+00    0.11       1.0  T
 101     -9.3182035 -0.186643E-03  0.376E+00    0.11       1.0  T
 102     -9.3192420 -0.103854E-02  0.378E+00    0.11       1.0  T
 103     -9.3192027  0.392868E-04  0.378E+00    0.11       1.0  T
 104     -9.3184633  0.739413E-03  0.376E+00    0.11       1.0  T
 105     -9.3172526  0.121070E-02  0.371E+00    0.12       1.0  T
 106     -9.3198031 -0.255046E-02  0.373E+00    0.12       1.0  T
 107     -9.3212494 -0.144636E-02  0.374E+00    0.12       1.0  T
 108     -9.3210241  0.225308E-03  0.375E+00    0.12       1.0  T
 109     -9.3207343  0.289809E-03  0.374E+00    0.12       1.0  T
 110     -9.3196688  0.106553E-02  0.373E+00    0.12       1.0  T
 111     -9.3191295  0.539224E-03  0.375E+00    0.11       1.0  T
 112     -9.3197016 -0.572051E-03  0.375E+00    0.12       1.0  T
 113     -9.3192803  0.421280E-03  0.375E+00    0.11       1.0  T
 114     -9.3192182  0.621603E-04  0.372E+00    0.13       1.0  T
 115     -9.3157793  0.343887E-02  0.351E+00    0.18       1.0  T
 116     -9.3176117 -0.183239E-02  0.335E+00    0.21       1.0  T
 117     -9.3219291 -0.431745E-02  0.334E+00    0.22       1.0  T
 118     -9.3231562 -0.122711E-02  0.325E+00    0.23       1.0  T
 119     -9.3074166  0.157396E-01  0.273E+00    0.30       1.0  T
 120     -9.3181984 -0.107817E-01  0.258E+00    0.31       1.0  T
 121     -9.3327555 -0.145572E-01  0.256E+00    0.32       1.0  T
 122     -9.2995356  0.332199E-01  0.222E+00    0.37       1.0  T
 123     -9.2904180  0.911763E-02  0.210E+00    0.38       1.0  T
 124     -9.2893325  0.108548E-02  0.211E+00    0.38       1.0  T
 125     -9.2983512 -0.901876E-02  0.199E+00    0.39       1.0  T
 126     -9.1772856  0.121066E+00  0.239E+00    0.48       1.0  T
 127     -9.0880422  0.892434E-01  0.298E+00    0.50       1.0  T
 128     -9.0950139 -0.697164E-02  0.294E+00    0.50       1.0  T
 129     -9.1171537 -0.221398E-01  0.281E+00    0.50       1.0  T
 130     -9.1171717 -0.179803E-04  0.281E+00    0.50       1.0  T
 131     -9.2044234 -0.872518E-01  0.225E+00    0.45       1.0  T
 132     -9.2485167 -0.440933E-01  0.184E+00    0.47       1.0  T
 133     -9.0958222  0.152695E+00  0.302E+00    0.55       1.0  T
 134     -9.0028079  0.930143E-01  0.364E+00    0.58       1.0  T
 135     -9.0033843 -0.576434E-03  0.362E+00    0.58       1.0  T
 136     -9.2280528 -0.224668E+00  0.210E+00    0.49       1.0  T
 137     -9.2223558  0.569705E-02  0.256E+00    0.56       1.0  T
 138     -9.1464992  0.758565E-01  0.301E+00    0.55       1.0  T
 139     -9.2196407 -0.731415E-01  0.298E+00    0.57       1.0  T
 140     -9.2469364 -0.272956E-01  0.320E+00    0.58       1.0  T
 141     -9.2744693 -0.275329E-01  0.350E+00    0.58       1.0  T
 142     -9.2818808 -0.741151E-02  0.378E+00    0.59       1.0  T
 143     -9.2835242 -0.164344E-02  0.378E+00    0.59       1.0  T
 144     -9.2826648  0.859382E-03  0.379E+00    0.59       1.0  T
 145     -9.2815458  0.111904E-02  0.378E+00    0.59       1.0  T
 146     -9.2726234  0.892246E-02  0.382E+00    0.59       1.0  T
 147     -9.2694526  0.317076E-02  0.385E+00    0.59       1.0  T
 148     -9.2748588 -0.540617E-02  0.376E+00    0.59       1.0  T
 149     -9.2770483 -0.218950E-02  0.351E+00    0.58       1.0  T
 150     -9.2711572  0.589104E-02  0.319E+00    0.57       1.0  T
 151     -9.2708305  0.326765E-03  0.299E+00    0.55       1.0  T
 152     -9.2992792 -0.284488E-01  0.275E+00    0.55       1.0  T
 153     -9.3442784 -0.449991E-01  0.225E+00    0.55       1.0  T
 154     -9.3627634 -0.184850E-01  0.180E+00    0.56       1.0  T
 155     -9.3641596 -0.139620E-02  0.132E+00    0.57       1.0  T
 156     -9.3638777  0.281934E-03  0.907E-01    0.58       1.0  T
 157     -9.3654290 -0.155132E-02  0.705E-01    0.57       1.0  T
 158     -9.3652069  0.222112E-03  0.568E-01    0.56       1.0  T
 159     -9.3654426 -0.235691E-03  0.458E-01    0.56       1.0  T
 160     -9.3647015  0.741086E-03  0.399E-01    0.56       1.0  T
 161     -9.3641511  0.550359E-03  0.293E-01    0.57       1.0  T
 162     -9.3651445 -0.993337E-03  0.170E-01    0.56       1.0  T
 163     -9.3653626 -0.218125E-03  0.116E-01    0.56       1.0  T
 164     -9.3653835 -0.209153E-04  0.116E-01    0.56       1.0  T
 165     -9.3655169 -0.133364E-03  0.377E-02    0.55       1.0  T
 166     -9.3655214 -0.455485E-05  0.380E-02    0.55       1.0  T
 167     -9.3655210  0.386208E-06  0.146E-02    0.55       2.2  T
 168     -9.3655048  0.162648E-04  0.298E-02    0.55       1.1  T
 169     -9.3655091 -0.428096E-05  0.244E-02    0.55       1.3  T
 170     -9.3655140 -0.497389E-05  0.235E-02    0.55       1.3  T
 171     -9.3655209 -0.691961E-05  0.132E-02    0.55       2.4  T
 172     -9.3655233 -0.238256E-05  0.616E-03    0.55       5.1  T
 173     -9.3655238 -0.453754E-06  0.563E-03    0.55       5.6  T
 174     -9.3655239 -0.978416E-07  0.434E-03    0.55       7.3  T
 175     -9.3655239 -0.258069E-08  0.267E-03    0.55      11.9  T
 176     -9.3655239 -0.120344E-07  0.531E-04    0.55      59.6  T
 177     -9.3655239 -0.274950E-08  0.215E-04    0.55     147.0  T

   *** convergence criteria satisfied after 177 iterations ***

         #    Occupation            Energy/Eh            Energy/eV
      -------------------------------------------------------------
         1        2.0000           -0.6015589             -16.3692
       ...           ...                  ...                  ...
         4        2.0000           -0.4826248             -13.1329
         5        2.0000           -0.4766775             -12.9711
         6        2.0000           -0.3821664             -10.3993
         7        2.0000           -0.3349713              -9.1150
         8        2.0000           -0.3305014              -8.9934
         9        2.0000           -0.3235087              -8.8031
        10        1.9999           -0.2916205              -7.9354 (HOMO)
        11        0.0000           -0.2712881              -7.3821 (LUMO)
        12        0.0000           -0.2699992              -7.3471
        13                         -0.2541216              -6.9150
        14                         -0.2204737              -5.9994
        15                         -0.1995686              -5.4305
       ...                                ...                  ...
        22                          0.7612521              20.7147
      -------------------------------------------------------------
                  HL-Gap            0.0203324 Eh            0.5533 eV
             Fermi-level           -0.2815631 Eh           -7.6617 eV

 SCC (total)                   0 d,  0 h,  0 min,  0.074 sec
 SCC setup                      ...        0 min,  0.000 sec (  0.093%)
 Dispersion                     ...        0 min,  0.000 sec (  0.230%)
 classical contributions        ...        0 min,  0.000 sec (  0.110%)
 integral evaluation            ...        0 min,  0.000 sec (  0.163%)
 iterations                     ...        0 min,  0.073 sec ( 98.720%)
 molecular gradient             ...        0 min,  0.000 sec (  0.629%)
 printout                       ...        0 min,  0.000 sec (  0.042%)

         :::::::::::::::::::::::::::::::::::::::::::::::::::::
         ::                     SUMMARY                     ::
         :::::::::::::::::::::::::::::::::::::::::::::::::::::
         :: total energy              -9.280819762778 Eh    ::
         :: gradient norm              0.257749785590 Eh/a0 ::
         :: HOMO-LUMO gap              0.553273459264 eV    ::
         ::.................................................::
         :: SCC energy                -9.365523897187 Eh    ::
         :: -> isotropic ES           -0.064928906254 Eh    ::
         :: -> anisotropic ES          0.004843625228 Eh    ::
         :: -> anisotropic XC         -0.004711927704 Eh    ::
         :: -> dispersion             -0.007039134468 Eh    ::
         :: repulsion energy           0.084700814962 Eh    ::
         :: add. restraining           0.000000000000 Eh    ::
         :: total charge              -0.000000000002 e     ::
         :::::::::::::::::::::::::::::::::::::::::::::::::::::

      ----------------------------------------------------------- 
     |                   =====================                   |
     |                        A N C O P T                        |
     |                   =====================                   |
     |               Approximate Normal Coordinate               |
     |                Rational Function Optimizer                |
      ----------------------------------------------------------- 

          ...................................................
          :                      SETUP                      :
          :.................................................:
          :   optimization level            normal          :
          :   max. optcycles                   200          :
          :   ANC micro-cycles                  20          :
          :   degrees of freedom                24          :
          :.................................................:
          :   RF solver                   davidson          :
          :   write xtbopt.log                true          :
          :   linear?                        false          :
          :   energy convergence         0.5000000E-05 Eh   :
          :   grad. convergence          0.1000000E-02 Eh/α :
          :   maximium RF displ.         1.0000000          :
          :   Hlow (freq-cutoff)         0.1000000E-01      :
          :   Hmax (freq-cutoff)         5.0000000          :
          :   S6 in model hess.         20.0000000          :
          ...................................................

generating ANC from model Hessian ...
Using Lindh-Hessian (1995)
 Shifting diagonal of input Hessian by    1.5626757806649336E-002
 Lowest  eigenvalues of input Hessian
    0.010000    0.011960    0.013801    0.014981    0.015294    0.000000
    0.000000    0.000000    0.000000    0.000000    0.000000    0.015757
    0.016632    0.017140    0.018544    0.020051    0.022452    0.031069
 Highest eigenvalues
    0.216894    0.252484    0.272816    0.327469    0.382888    0.416801


........................................................................
.............................. CYCLE    1 ..............................
........................................................................
   1     -9.3655239 -0.936552E+01  0.137E-04    0.55       0.0  T
   2     -9.3655239  0.355957E-08  0.457E-04    0.55      69.2  T
   3     -9.3655239 -0.334670E-08  0.170E-04    0.55     186.5  T
     SCC iter.                  ...        0 min,  0.000 sec
     gradient                   ...        0 min,  0.000 sec
 * total energy  :    -9.2808198 Eh     change        0.1408615E-09 Eh
   gradient norm :     0.2577402 Eh/α   predicted     0.0000000E+00 (-100.00%)
   displ. norm   :     0.7536009 α      lambda       -0.1839737E+00
   maximum displ.:     0.3917291 α      in ANC's #15, #17, #21, ...

........................................................................
.............................. CYCLE    2 ..............................
........................................................................
   1     -9.4727954 -0.947280E+01  0.260E+00    0.54       0.0  T
   2     -4.6884819  0.478431E+01  0.123E+01    0.12       1.0  T
   3     -8.6938323 -0.400535E+01  0.595E+00    0.23       1.0  T
   4     -7.2404817  0.145335E+01  0.805E+00    0.03       1.0  T
   5     -9.1853832 -0.194490E+01  0.386E+00    0.39       1.0  T
   6     -9.4913269 -0.305944E+00  0.164E+00    0.62       1.0  T
   7     -9.5025803 -0.112534E-01  0.163E+00    0.66       1.0  T
   8     -9.5114606 -0.888033E-02  0.128E+00    0.67       1.0  T
   9     -9.5132155 -0.175488E-02  0.112E+00    0.62       1.0  T
  10     -9.5149601 -0.174463E-02  0.805E-01    0.65       1.0  T
  11     -9.5156377 -0.677610E-03  0.506E-01    0.65       1.0  T
  12     -9.5154962  0.141527E-03  0.408E-01    0.64       1.0  T
  13     -9.5157292 -0.233004E-03  0.311E-01    0.64       1.0  T
  14     -9.5161256 -0.396428E-03  0.224E-01    0.64       1.0  T
  15     -9.5161665 -0.409108E-04  0.190E-01    0.64       1.0  T
  16     -9.5161882 -0.216648E-04  0.151E-01    0.64       1.0  T
  17     -9.5162003 -0.120491E-04  0.129E-01    0.64       1.0  T
  18     -9.5162269 -0.266800E-04  0.964E-02    0.64       1.0  T
  19     -9.5162501 -0.231344E-04  0.524E-02    0.64       1.0  T
  20     -9.5162622 -0.121146E-04  0.143E-02    0.63       2.2  T
  21     -9.5162642 -0.197956E-05  0.779E-03    0.63       4.1  T
  22     -9.5162646 -0.399330E-06  0.639E-03    0.63       5.0  T
  23     -9.5162648 -0.264966E-06  0.438E-03    0.63       7.2  T
  24     -9.5162650 -0.180043E-06  0.231E-03    0.63      13.7  T
  25     -9.5162651 -0.676111E-07  0.539E-04    0.63      58.7  T
  26     -9.5162651 -0.410765E-08  0.145E-04    0.63     218.2  T
     SCC iter.                  ...        0 min,  0.004 sec
     gradient                   ...        0 min,  0.000 sec
 * total energy  :    -9.4486062 Eh     change       -0.1677864E+00 Eh
   gradient norm :     0.2329714 Eh/α   predicted    -0.1442275E+00 ( -14.04%)
   displ. norm   :     0.9555402 α      lambda       -0.2201103E+00
   maximum displ.:     0.5643459 α      in ANC's #21, #15, #20, ...

........................................................................
.............................. CYCLE    3 ..............................
........................................................................
   1     -9.7503662 -0.975037E+01  0.425E+00    0.33       0.0  T
   2     -9.7171000  0.332662E-01  0.428E+00    0.38       1.0  T
   3     -9.6169678  0.100132E+00  0.266E+00    0.59       1.0  T
   4     -7.1075960  0.250937E+01  0.117E+01    0.48       1.0  T
   5     -8.0283952 -0.920799E+00  0.110E+01    0.63       1.0  T
   6     -9.1464755 -0.111808E+01  0.822E+00    0.44       1.0  T
   7     -9.6846067 -0.538131E+00  0.349E+00    0.49       1.0  T
   8     -9.7650463 -0.804396E-01  0.994E-01    0.57       1.0  T
   9     -9.7650281  0.181951E-04  0.962E-01    0.57       1.0  T
  10     -9.7670606 -0.203251E-02  0.102E+00    0.54       1.0  T
  11     -9.7667682  0.292489E-03  0.134E+00    0.60       1.0  T
  12     -9.7667952 -0.270682E-04  0.135E+00    0.60       1.0  T
  13     -9.7634242  0.337105E-02  0.198E+00    0.62       1.0  T
  14     -9.7639122 -0.488005E-03  0.190E+00    0.62       1.0  T
  15     -9.7664385 -0.252635E-02  0.117E+00    0.60       1.0  T
  16     -9.7681237 -0.168521E-02  0.673E-01    0.58       1.0  T
  17     -9.7684054 -0.281618E-03  0.790E-01    0.57       1.0  T
  18     -9.7683326  0.727158E-04  0.806E-01    0.57       1.0  T
  19     -9.7683959 -0.632698E-04  0.604E-01    0.58       1.0  T
  20     -9.7684370 -0.410479E-04  0.528E-01    0.58       1.0  T
  21     -9.7684691 -0.321207E-04  0.275E-01    0.59       1.0  T
  22     -9.7684780 -0.895088E-05  0.662E-02    0.60       1.0  T
  23     -9.7684786 -0.529166E-06  0.159E-02    0.61       2.0  T
  24     -9.7684785  0.656174E-07  0.240E-02    0.61       1.3  T
  25     -9.7684785 -0.429673E-07  0.947E-03    0.61       3.3  T
  26     -9.7684786 -0.866915E-07  0.270E-03    0.61      11.7  T
  27     -9.7684786 -0.388435E-08  0.524E-04    0.61      60.4  T
  28     -9.7684786 -0.297256E-10  0.108E-04    0.61     293.4  T
     SCC iter.                  ...        0 min,  0.004 sec
     gradient                   ...        0 min,  0.001 sec
 * total energy  :    -9.5894769 Eh     change       -0.1408707E+00 Eh
   gradient norm :     0.1677558 Eh/α   predicted    -0.2105418E+00 (  49.46%)
   displ. norm   :     0.7577145 α      lambda       -0.9887986E-01
   maximum displ.:     0.4587243 α      in ANC's #15, #5, #2, ...

........................................................................
.............................. CYCLE    4 ..............................
........................................................................
   1     -9.7241070 -0.972411E+01  0.392E+00    1.80       0.0  T
   2     -7.5544333  0.216967E+01  0.806E+00    0.68       1.0  T
   3     -9.4806221 -0.192619E+01  0.344E+00    1.99       1.0  T
   4     -9.7471836 -0.266561E+00  0.233E+00    1.63       1.0  T
   5     -9.6985006  0.486830E-01  0.170E+00    1.83       1.0  T
   6     -9.7282482 -0.297476E-01  0.151E+00    1.80       1.0  T
   7     -9.7492241 -0.209759E-01  0.116E+00    1.77       1.0  T
   8     -9.7574545 -0.823038E-02  0.947E-01    1.74       1.0  T
   9     -9.7614687 -0.401422E-02  0.764E-01    1.74       1.0  T
  10     -9.7691147 -0.764596E-02  0.466E-01    1.70       1.0  T
  11     -9.7718559 -0.274117E-02  0.191E-01    1.67       1.0  T
  12     -9.7723436 -0.487759E-03  0.958E-02    1.66       1.0  T
  13     -9.7725160 -0.172345E-03  0.226E-02    1.65       1.4  T
  14     -9.7725199 -0.388807E-05  0.140E-02    1.65       2.3  T
  15     -9.7725219 -0.201518E-05  0.674E-03    1.65       4.7  T
  16     -9.7725224 -0.535063E-06  0.141E-03    1.65      22.5  T
  17     -9.7725224  0.270759E-07  0.153E-03    1.65      20.7  T
  18     -9.7725224 -0.358554E-07  0.245E-04    1.65     129.2  T
  19     -9.7725224 -0.496936E-09  0.107E-05    1.65    2961.5  T
     SCC iter.                  ...        0 min,  0.002 sec
     gradient                   ...        0 min,  0.000 sec
 * total energy  :    -9.5910657 Eh     change       -0.1588768E-02 Eh
   gradient norm :     0.3119700 Eh/α   predicted    -0.7782495E-01 (4798.45%)
   displ. norm   :     0.5797971 α      lambda       -0.1401414E+00
   maximum displ.:     0.3696066 α      in ANC's #15, #5, #13, ...

........................................................................
.............................. CYCLE    5 ..............................
........................................................................
   1     -9.7296643 -0.972966E+01  0.271E+00    1.00       0.0  T
   2     -9.6756774  0.539869E-01  0.240E+00    1.50       1.0  T
   3     -8.0797040  0.159597E+01  0.774E+00    0.51       1.0  T
   4     -9.7259218 -0.164622E+01  0.155E+00    1.00       1.0  T
   5     -9.7298397 -0.391789E-02  0.996E-01    0.93       1.0  T
   6     -9.7302288 -0.389056E-03  0.701E-01    1.21       1.0  T
   7     -9.7349400 -0.471121E-02  0.493E-01    1.17       1.0  T
   8     -9.7358831 -0.943120E-03  0.430E-01    1.14       1.0  T
   9     -9.7361347 -0.251610E-03  0.401E-01    1.15       1.0  T
  10     -9.7367206 -0.585915E-03  0.357E-01    1.14       1.0  T
  11     -9.7369712 -0.250578E-03  0.336E-01    1.13       1.0  T
  12     -9.7369923 -0.210577E-04  0.334E-01    1.13       1.0  T
  13     -9.7376504 -0.658122E-03  0.254E-01    1.12       1.0  T
  14     -9.7381818 -0.531398E-03  0.165E-01    1.11       1.0  T
  15     -9.7385451 -0.363286E-03  0.480E-02    1.09       1.0  T
  16     -9.7385821 -0.369725E-04  0.460E-03    1.09       6.9  T
  17     -9.7385825 -0.489920E-06  0.225E-03    1.09      14.1  T
  18     -9.7385826 -0.948866E-08  0.290E-03    1.09      10.9  T
  19     -9.7385827 -0.117275E-06  0.397E-04    1.08      79.7  T
  20     -9.7385827  0.669471E-08  0.810E-04    1.09      39.1  T
     SCC iter.                  ...        0 min,  0.002 sec
     gradient                   ...        0 min,  0.000 sec
 * total energy  :    -9.6319207 Eh     change       -0.4085504E-01 Eh
   gradient norm :     0.1405875 Eh/α   predicted    -0.9362596E-01 ( 129.17%)
   displ. norm   :     0.5944768 α      lambda       -0.6403924E-01
   maximum displ.:     0.2624815 α      in ANC's #1, #21, #5, ...

........................................................................
.............................. CYCLE    6 ..............................
........................................................................
   1     -9.8408273 -0.984083E+01  0.277E+00    1.17       0.0  T
   2     -9.8389609  0.186632E-02  0.216E+00    1.17       1.0  T
   3     -9.8345580  0.440292E-02  0.154E+00    1.08       1.0  T
   4     -9.7979232  0.366348E-01  0.132E+00    1.66       1.0  T
   5     -9.8401624 -0.422392E-01  0.604E-01    1.01       1.0  T
   6     -9.8468544 -0.669197E-02  0.234E-01    1.22       1.0  T
   7     -9.8480374 -0.118309E-02  0.938E-02    1.14       1.0  T
   8     -9.8480732 -0.357405E-04  0.480E-02    1.17       1.0  T
   9     -9.8480790 -0.580090E-05  0.346E-02    1.17       1.0  T
  10     -9.8480978 -0.187955E-04  0.738E-03    1.16       4.3  T
  11     -9.8480979 -0.962135E-07  0.346E-03    1.16       9.1  T
  12     -9.8480979 -0.580203E-07  0.193E-03    1.16      16.4  T
  13     -9.8480980 -0.421190E-07  0.734E-04    1.16      43.1  T
  14     -9.8480980 -0.536843E-08  0.129E-04    1.16     245.8  T
     SCC iter.                  ...        0 min,  0.002 sec
     gradient                   ...        0 min,  0.000 sec
 * total energy  :    -9.6639028 Eh     change       -0.3198204E-01 Eh
   gradient norm :     0.1618061 Eh/α   predicted    -0.4333543E-01 (  35.50%)
   displ. norm   :     0.6028092 α      lambda       -0.4756757E-01
   maximum displ.:     0.2776555 α      in ANC's #5, #1, #13, ...

........................................................................
.............................. CYCLE    7 ..............................
........................................................................
   1     -9.8373111 -0.983731E+01  0.170E+00    1.34       0.0  T
   2     -9.8322519  0.505922E-02  0.118E+00    1.40       1.0  T
   3     -9.3094279  0.522824E+00  0.438E+00    0.88       1.0  T
   4     -9.8297911 -0.520363E+00  0.801E-01    1.31       1.0  T
   5     -9.8347795 -0.498842E-02  0.525E-01    1.33       1.0  T
   6     -9.8380737 -0.329423E-02  0.199E-01    1.36       1.0  T
   7     -9.8381532 -0.795329E-04  0.899E-02    1.37       1.0  T
   8     -9.8380897  0.635052E-04  0.825E-02    1.36       1.0  T
   9     -9.8381906 -0.100851E-03  0.579E-02    1.36       1.0  T
  10     -9.8382053 -0.146968E-04  0.445E-02    1.36       1.0  T
  11     -9.8382216 -0.162808E-04  0.285E-02    1.36       1.1  T
  12     -9.8382241 -0.248293E-05  0.241E-02    1.36       1.3  T
  13     -9.8382313 -0.726519E-05  0.833E-03    1.36       3.8  T
  14     -9.8382321 -0.770063E-06  0.268E-03    1.36      11.8  T
  15     -9.8382322 -0.103321E-06  0.945E-04    1.36      33.5  T
  16     -9.8382322 -0.104684E-07  0.288E-04    1.36     109.8  T
     SCC iter.                  ...        0 min,  0.003 sec
     gradient                   ...        0 min,  0.001 sec
 * total energy  :    -9.6866731 Eh     change       -0.2277034E-01 Eh
   gradient norm :     0.0848229 Eh/α   predicted    -0.3242630E-01 (  42.41%)
   displ. norm   :     0.6829736 α      lambda       -0.3993109E-01
   maximum displ.:     0.3370723 α      in ANC's #3, #9, #24, ...

........................................................................
.............................. CYCLE    8 ..............................
........................................................................
   1     -9.8396887 -0.983969E+01  0.221E+00    1.48       0.0  T
   2     -9.7615049  0.781838E-01  0.232E+00    2.17       1.0  T
   3     -9.5716915  0.189813E+00  0.295E+00    0.99       1.0  T
   4     -9.7642890 -0.192598E+00  0.174E+00    2.03       1.0  T
   5     -9.8366331 -0.723441E-01  0.957E-01    1.67       1.0  T
   6     -9.8398514 -0.321832E-02  0.693E-01    1.71       1.0  T
   7     -9.8400467 -0.195304E-03  0.639E-01    1.73       1.0  T
   8     -9.8465097 -0.646301E-02  0.294E-01    1.66       1.0  T
   9     -9.8481783 -0.166855E-02  0.135E-01    1.63       1.0  T
  10     -9.8485933 -0.415005E-03  0.308E-02    1.61       1.0  T
  11     -9.8486204 -0.271268E-04  0.735E-03    1.60       4.3  T
  12     -9.8486198  0.616194E-06  0.668E-03    1.60       4.7  T
  13     -9.8486209 -0.110524E-05  0.965E-04    1.60      32.8  T
  14     -9.8486209 -0.926309E-08  0.297E-04    1.60     106.5  T
  15     -9.8486209 -0.858874E-09  0.146E-04    1.60     217.2  T
     SCC iter.                  ...        0 min,  0.002 sec
     gradient                   ...        0 min,  0.000 sec
 * total energy  :    -9.6995225 Eh     change       -0.1284937E-01 Eh
   gradient norm :     0.1221200 Eh/α   predicted    -0.2927853E-01 ( 127.86%)
   displ. norm   :     0.5671358 α      lambda       -0.3640391E-01
   maximum displ.:     0.2324844 α      in ANC's #1, #13, #24, ...

........................................................................
.............................. CYCLE    9 ..............................
........................................................................
   1     -9.9122981 -0.991230E+01  0.174E+00    1.71       0.0  T
   2     -9.8036824  0.108616E+00  0.245E+00    0.67       1.0  T
   3     -9.9187118 -0.115029E+00  0.124E+00    1.44       1.0  T
   4     -9.8134559  0.105256E+00  0.193E+00    0.91       1.0  T
   5     -9.9204891 -0.107033E+00  0.189E-01    1.44       1.0  T
   6     -9.9206438 -0.154746E-03  0.124E-01    1.48       1.0  T
   7     -9.9205062  0.137567E-03  0.112E-01    1.53       1.0  T
   8     -9.9206056 -0.993185E-04  0.666E-02    1.52       1.0  T
   9     -9.9207196 -0.114038E-03  0.237E-02    1.50       1.3  T
  10     -9.9207317 -0.120898E-04  0.473E-03    1.49       6.7  T
  11     -9.9207318 -0.878011E-07  0.227E-03    1.49      13.9  T
  12     -9.9207317  0.557584E-07  0.184E-03    1.49      17.2  T
  13     -9.9207318 -0.570765E-07  0.649E-04    1.49      48.8  T
  14     -9.9207318 -0.751744E-08  0.108E-04    1.49     293.0  T
     SCC iter.                  ...        0 min,  0.002 sec
     gradient                   ...        0 min,  0.000 sec
 * total energy  :    -9.7136717 Eh     change       -0.1414920E-01 Eh
   gradient norm :     0.1012913 Eh/α   predicted    -0.2405648E-01 (  70.02%)
   displ. norm   :     0.6171948 α      lambda       -0.5285823E-01
   maximum displ.:     0.3672897 α      in ANC's #13, #11, #20, ...

........................................................................
.............................. CYCLE   10 ..............................
........................................................................
   1     -9.9208535 -0.992085E+01  0.273E+00    1.47       0.0  T
   2     -9.6682012  0.252652E+00  0.381E+00    1.43       1.0  T
   3     -9.9415765 -0.273375E+00  0.175E+00    1.41       1.0  T
   4     -9.9132815  0.282950E-01  0.146E+00    1.74       1.0  T
   5     -9.9611188 -0.478373E-01  0.528E-01    1.46       1.0  T
   6     -9.9650227 -0.390393E-02  0.303E-01    1.48       1.0  T
   7     -9.9662532 -0.123050E-02  0.153E-01    1.50       1.0  T
   8     -9.9661899  0.633506E-04  0.697E-02    1.51       1.0  T
   9     -9.9661711  0.188011E-04  0.766E-02    1.51       1.0  T
  10     -9.9662494 -0.782769E-04  0.256E-02    1.51       1.2  T
  11     -9.9662618 -0.124687E-04  0.278E-03    1.51      11.4  T
  12     -9.9662619 -0.352543E-07  0.147E-03    1.51      21.6  T
  13     -9.9662619 -0.108862E-07  0.519E-04    1.51      61.0  T
  14     -9.9662619 -0.861373E-09  0.426E-04    1.51      74.2  T
     SCC iter.                  ...        0 min,  0.002 sec
     gradient                   ...        0 min,  0.001 sec
 * total energy  :    -9.7128245 Eh     change        0.8472188E-03 Eh
   gradient norm :     0.2208770 Eh/α   predicted    -0.3649674E-01 (*******%)
   displ. norm   :     0.3505438 α      lambda       -0.5029677E-01
   maximum displ.:     0.1895763 α      in ANC's #2, #9, #3, ...

........................................................................
.............................. CYCLE   11 ..............................
........................................................................
   1     -9.8980929 -0.989809E+01  0.160E+00    1.80       0.0  T
   2     -9.6716902  0.226403E+00  0.269E+00    1.11       1.0  T
   3     -9.8319975 -0.160307E+00  0.171E+00    2.27       1.0  T
   4     -9.8970167 -0.650192E-01  0.849E-01    1.84       1.0  T
   5     -9.8995582 -0.254152E-02  0.599E-01    1.84       1.0  T
   6     -9.9009097 -0.135151E-02  0.518E-01    1.84       1.0  T
   7     -9.9006996  0.210079E-03  0.534E-01    1.84       1.0  T
   8     -9.9049934 -0.429381E-02  0.207E-01    1.78       1.0  T
   9     -9.9054658 -0.472393E-03  0.129E-01    1.77       1.0  T
  10     -9.9057964 -0.330618E-03  0.208E-02    1.75       1.5  T
  11     -9.9057998 -0.340366E-05  0.144E-02    1.75       2.2  T
  12     -9.9058051 -0.523353E-05  0.129E-03    1.74      24.6  T
  13     -9.9058050  0.495459E-07  0.147E-03    1.74      21.5  T
  14     -9.9058051 -0.520587E-07  0.236E-04    1.74     133.8  T
  15     -9.9058051  0.262226E-10  0.714E-05    1.74     442.9  T
     SCC iter.                  ...        0 min,  0.002 sec
     gradient                   ...        0 min,  0.000 sec
 * total energy  :    -9.7331673 Eh     change       -0.2034286E-01 Eh
   gradient norm :     0.0593684 Eh/α   predicted    -0.2823866E-01 (  38.81%)
   displ. norm   :     0.3677442 α      lambda       -0.1419614E-01
   maximum displ.:     0.2071771 α      in ANC's #24, #8, #15, ...

........................................................................
.............................. CYCLE   12 ..............................
........................................................................
   1     -9.9518196 -0.995182E+01  0.801E-01    2.02       0.0  T
   2     -9.9013964  0.504231E-01  0.127E+00    1.42       1.0  T
   3     -9.9476101 -0.462136E-01  0.557E-01    2.11       1.0  T
   4     -9.9537771 -0.616701E-02  0.364E-01    1.86       1.0  T
   5     -9.9550128 -0.123569E-02  0.102E-01    1.89       1.0  T
   6     -9.9550179 -0.510111E-05  0.836E-02    1.88       1.0  T
   7     -9.9550196 -0.178508E-05  0.585E-02    1.88       1.0  T
   8     -9.9550661 -0.464392E-04  0.160E-02    1.91       2.0  T
   9     -9.9550710 -0.488037E-05  0.305E-03    1.91      10.4  T
  10     -9.9550710 -0.561941E-07  0.163E-03    1.91      19.4  T
  11     -9.9550711 -0.510787E-07  0.295E-04    1.91     107.2  T
  12     -9.9550711 -0.151080E-08  0.111E-04    1.91     285.9  T
     SCC iter.                  ...        0 min,  0.002 sec
     gradient                   ...        0 min,  0.000 sec
 * total energy  :    -9.7366978 Eh     change       -0.3530504E-02 Eh
   gradient norm :     0.0774349 Eh/α   predicted    -0.8057980E-02 ( 128.24%)
   displ. norm   :     0.5474263 α      lambda       -0.1886757E-01
   maximum displ.:     0.3189872 α      in ANC's #9, #12, #4, ...

........................................................................
.............................. CYCLE   13 ..............................
........................................................................
   1     -9.9322797 -0.993228E+01  0.122E+00    1.78       0.0  T
   2     -9.9321938  0.859380E-04  0.858E-01    1.72       1.0  T
   3     -9.9282749  0.391890E-02  0.700E-01    1.90       1.0  T
   4     -9.9285844 -0.309513E-03  0.345E-01    1.63       1.0  T
   5     -9.9316101 -0.302568E-02  0.227E-01    1.89       1.0  T
   6     -9.9328492 -0.123911E-02  0.106E-01    1.81       1.0  T
   7     -9.9329727 -0.123489E-03  0.176E-02    1.79       1.8  T
   8     -9.9329779 -0.524941E-05  0.693E-03    1.79       4.6  T
   9     -9.9329782 -0.227198E-06  0.171E-03    1.79      18.5  T
  10     -9.9329781  0.492685E-07  0.140E-03    1.79      22.7  T
  11     -9.9329782 -0.567549E-07  0.161E-04    1.79     196.2  T
  12     -9.9329782 -0.315771E-09  0.280E-05    1.79    1131.2  T
     SCC iter.                  ...        0 min,  0.001 sec
     gradient                   ...        0 min,  0.000 sec
 * total energy  :    -9.7433573 Eh     change       -0.6659430E-02 Eh
   gradient norm :     0.0491929 Eh/α   predicted    -0.1226087E-01 (  84.11%)
   displ. norm   :     0.3464165 α      lambda       -0.8794270E-02
   maximum displ.:     0.1522086 α      in ANC's #11, #9, #2, ...

........................................................................
.............................. CYCLE   14 ..............................
........................................................................
   1     -9.9385688 -0.993857E+01  0.993E-01    1.69       0.0  T
   2     -9.9220575  0.165114E-01  0.102E+00    2.17       1.0  T
   3     -9.9005491  0.215084E-01  0.112E+00    1.39       1.0  T
   4     -9.9270868 -0.265378E-01  0.675E-01    2.03       1.0  T
   5     -9.9390833 -0.119965E-01  0.224E-01    1.82       1.0  T
   6     -9.9402861 -0.120281E-02  0.133E-01    1.77       1.0  T
   7     -9.9403491 -0.630462E-04  0.120E-01    1.76       1.0  T
   8     -9.9404515 -0.102336E-03  0.251E-02    1.76       1.3  T
   9     -9.9404592 -0.773002E-05  0.114E-02    1.76       2.8  T
  10     -9.9404615 -0.234575E-05  0.238E-03    1.75      13.3  T
  11     -9.9404616 -0.841266E-07  0.478E-04    1.75      66.2  T
  12     -9.9404616 -0.161491E-08  0.150E-04    1.75     210.7  T
     SCC iter.                  ...        0 min,  0.002 sec
     gradient                   ...        0 min,  0.001 sec
 * total energy  :    -9.7471036 Eh     change       -0.3746346E-02 Eh
   gradient norm :     0.0417625 Eh/α   predicted    -0.4924812E-02 (  31.46%)
   displ. norm   :     0.4109785 α      lambda       -0.7731152E-02
   maximum displ.:     0.2185516 α      in ANC's #6, #24, #8, ...

........................................................................
.............................. CYCLE   15 ..............................
........................................................................
   1     -9.9606921 -0.996069E+01  0.796E-01    1.86       0.0  T
   2     -9.9601183  0.573873E-03  0.523E-01    1.93       1.0  T
   3     -9.9116707  0.484476E-01  0.115E+00    1.45       1.0  T
   4     -9.9567191 -0.450484E-01  0.359E-01    2.00       1.0  T
   5     -9.9608711 -0.415202E-02  0.637E-02    1.85       1.0  T
   6     -9.9608672  0.388948E-05  0.561E-02    1.84       1.0  T
   7     -9.9608613  0.588041E-05  0.467E-02    1.83       1.0  T
   8     -9.9608900 -0.286775E-04  0.689E-03    1.84       4.6  T
   9     -9.9608904 -0.404663E-06  0.421E-03    1.85       7.5  T
  10     -9.9608907 -0.235004E-06  0.152E-03    1.85      20.8  T
  11     -9.9608907 -0.563861E-07  0.149E-04    1.85     212.1  T
  12     -9.9608907 -0.346750E-09  0.692E-05    1.85     456.9  T
     SCC iter.                  ...        0 min,  0.002 sec
     gradient                   ...        0 min,  0.000 sec
 * total energy  :    -9.7431173 Eh     change        0.3986319E-02 Eh
   gradient norm :     0.1001140 Eh/α   predicted    -0.4518485E-02 (-213.35%)
   displ. norm   :     0.3073175 α      lambda       -0.1834667E-01
   maximum displ.:     0.1509700 α      in ANC's #9, #5, #2, ...

........................................................................
.............................. CYCLE   16 ..............................
........................................................................
   1     -9.9475945 -0.994759E+01  0.886E-01    2.10       0.0  T
   2     -9.9281057  0.194888E-01  0.938E-01    1.67       1.0  T
   3     -9.9269400  0.116564E-02  0.846E-01    2.46       1.0  T
   4     -9.9477996 -0.208595E-01  0.357E-01    2.04       1.0  T
   5     -9.9485601 -0.760536E-03  0.132E-01    2.07       1.0  T
   6     -9.9491260 -0.565900E-03  0.800E-02    2.00       1.0  T
   7     -9.9491142  0.118178E-04  0.683E-02    2.00       1.0  T
   8     -9.9491287 -0.144872E-04  0.203E-02    2.03       1.6  T
   9     -9.9491388 -0.101261E-04  0.683E-03    2.02       4.6  T
  10     -9.9491392 -0.405103E-06  0.127E-03    2.02      24.9  T
  11     -9.9491392 -0.544365E-10  0.229E-04    2.02     138.2  T
  12     -9.9491392 -0.513666E-09  0.114E-04    2.02     278.1  T
     SCC iter.                  ...        0 min,  0.002 sec
     gradient                   ...        0 min,  0.001 sec
 * total energy  :    -9.7500297 Eh     change       -0.6912417E-02 Eh
   gradient norm :     0.0369790 Eh/α   predicted    -0.1003970E-01 (  45.24%)
   displ. norm   :     0.4892255 α      lambda       -0.8914251E-02
   maximum displ.:     0.1914932 α      in ANC's #11, #5, #14, ...

........................................................................
.............................. CYCLE   17 ..............................
........................................................................
   1     -9.9389663 -0.993897E+01  0.155E+00    1.65       0.0  T
   2     -9.9321265  0.683987E-02  0.118E+00    1.91       1.0  T
   3     -9.3120105  0.620116E+00  0.425E+00    0.90       1.0  T
   4     -9.9374480 -0.625438E+00  0.489E-01    1.77       1.0  T
   5     -9.9393425 -0.189451E-02  0.334E-01    1.69       1.0  T
   6     -9.9384750  0.867510E-03  0.252E-01    1.80       1.0  T
   7     -9.9387202 -0.245149E-03  0.221E-01    1.80       1.0  T
   8     -9.9394818 -0.761636E-03  0.157E-01    1.77       1.0  T
   9     -9.9396193 -0.137442E-03  0.133E-01    1.77       1.0  T
  10     -9.9398338 -0.214561E-03  0.619E-02    1.76       1.0  T
  11     -9.9398878 -0.540041E-04  0.195E-02    1.75       1.6  T
  12     -9.9398939 -0.610622E-05  0.131E-03    1.75      24.1  T
  13     -9.9398939  0.405162E-08  0.453E-04    1.75      69.7  T
  14     -9.9398939 -0.239184E-08  0.413E-04    1.75      76.6  T
     SCC iter.                  ...        0 min,  0.002 sec
     gradient                   ...        0 min,  0.000 sec
 * total energy  :    -9.7426474 Eh     change        0.7382293E-02 Eh
   gradient norm :     0.0947370 Eh/α   predicted    -0.5523909E-02 (-174.83%)
   displ. norm   :     0.2849243 α      lambda       -0.1970430E-01
   maximum displ.:     0.1625834 α      in ANC's #10, #14, #9, ...

........................................................................
.............................. CYCLE   18 ..............................
........................................................................
   1     -9.9471562 -0.994716E+01  0.750E-01    1.78       0.0  T
   2     -9.9468874  0.268764E-03  0.486E-01    1.84       1.0  T
   3     -9.9312113  0.156761E-01  0.743E-01    1.49       1.0  T
   4     -9.9379855 -0.677421E-02  0.521E-01    2.02       1.0  T
   5     -9.9473544 -0.936892E-02  0.598E-02    1.77       1.0  T
   6     -9.9473699 -0.154490E-04  0.522E-02    1.76       1.0  T
   7     -9.9473163  0.535904E-04  0.586E-02    1.74       1.0  T
   8     -9.9473912 -0.748779E-04  0.253E-03    1.77      12.5  T
   9     -9.9473912 -0.296978E-07  0.142E-03    1.77      22.2  T
  10     -9.9473912 -0.488398E-08  0.265E-04    1.77     119.5  T
  11     -9.9473912 -0.338135E-09  0.538E-05    1.77     588.3  T
     SCC iter.                  ...        0 min,  0.001 sec
     gradient                   ...        0 min,  0.001 sec
 * total energy  :    -9.7514506 Eh     change       -0.8803154E-02 Eh
   gradient norm :     0.0370617 Eh/α   predicted    -0.1065197E-01 (  21.00%)
   displ. norm   :     0.3262599 α      lambda       -0.6425172E-02
   maximum displ.:     0.2220015 α      in ANC's #5, #6, #4, ...

........................................................................
.............................. CYCLE   19 ..............................
........................................................................
   1     -9.9624450 -0.996245E+01  0.117E+00    2.19       0.0  T
   2     -9.9483981  0.140470E-01  0.105E+00    1.80       1.0  T
   3     -9.9126467  0.357514E-01  0.131E+00    2.47       1.0  T
   4     -9.9560225 -0.433758E-01  0.437E-01    2.31       1.0  T
   5     -9.9634197 -0.739719E-02  0.124E-01    2.08       1.0  T
   6     -9.9635934 -0.173708E-03  0.780E-02    2.05       1.0  T
   7     -9.9635911  0.232320E-05  0.621E-02    2.05       1.0  T
   8     -9.9635988 -0.773306E-05  0.232E-02    2.08       1.4  T
   9     -9.9636084 -0.958473E-05  0.141E-02    2.07       2.2  T
  10     -9.9636133 -0.485321E-05  0.155E-03    2.07      20.4  T
  11     -9.9636133  0.230776E-07  0.111E-03    2.07      28.6  T
  12     -9.9636133 -0.216884E-07  0.527E-04    2.07      60.0  T
  13     -9.9636133 -0.512590E-08  0.152E-04    2.07     208.4  T
     SCC iter.                  ...        0 min,  0.002 sec
     gradient                   ...        0 min,  0.000 sec
 * total energy  :    -9.7502514 Eh     change        0.1199134E-02 Eh
   gradient norm :     0.0432811 Eh/α   predicted    -0.3554553E-02 (-396.43%)
   displ. norm   :     0.2738591 α      lambda       -0.7382286E-02
   maximum displ.:     0.1502980 α      in ANC's #5, #2, #7, ...

........................................................................
.............................. CYCLE   20 ..............................
........................................................................
   1     -9.9521790 -0.995218E+01  0.107E+00    1.84       0.0  T
   2     -9.9457080  0.647106E-02  0.885E-01    2.13       1.0  T
   3     -9.8231980  0.122510E+00  0.180E+00    1.30       1.0  T
   4     -9.9402402 -0.117042E+00  0.672E-01    2.21       1.0  T
   5     -9.9508598 -0.106196E-01  0.272E-01    2.02       1.0  T
   6     -9.9522791 -0.141928E-02  0.173E-01    1.97       1.0  T
   7     -9.9523481 -0.690019E-04  0.157E-01    1.97       1.0  T
   8     -9.9528758 -0.527754E-03  0.359E-02    1.94       1.0  T
   9     -9.9528998 -0.239550E-04  0.200E-02    1.94       1.6  T
  10     -9.9529106 -0.107734E-04  0.524E-03    1.93       6.0  T
  11     -9.9529110 -0.421760E-06  0.320E-04    1.93      98.8  T
  12     -9.9529110 -0.129304E-08  0.219E-04    1.93     144.2  T
     SCC iter.                  ...        0 min,  0.002 sec
     gradient                   ...        0 min,  0.000 sec
 * total energy  :    -9.7526363 Eh     change       -0.2384912E-02 Eh
   gradient norm :     0.0360053 Eh/α   predicted    -0.3967975E-02 (  66.38%)
   displ. norm   :     0.3670207 α      lambda       -0.5333252E-02
   maximum displ.:     0.2228833 α      in ANC's #9, #8, #11, ...
 * RMSD in coord.:     1.7854876 α      energy gain  -0.4718166E+00 Eh

generating ANC from model Hessian ...
Using Lindh-Hessian (1995)
 Shifting diagonal of input Hessian by    1.2375654008967131E-002
 Lowest  eigenvalues of input Hessian
    0.010000    0.012032    0.012200    0.012298    0.012371    0.000000
    0.000000    0.000000    0.000000    0.000000    0.000000    0.012397
    0.012492    0.012646    0.012690    0.012987    0.013056    0.013202
 Highest eigenvalues
    0.459242    0.501705    0.513370    1.089929    1.158828    1.673977


........................................................................
.............................. CYCLE   21 ..............................
........................................................................
   1     -9.9419508 -0.994195E+01  0.892E-01    1.74       0.0  T
   2     -9.9407223  0.122852E-02  0.569E-01    1.86       1.0  T
   3     -9.8093341  0.131388E+00  0.186E+00    1.18       1.0  T
   4     -9.9411811 -0.131847E+00  0.209E-01    1.83       1.0  T
   5     -9.9419775 -0.796369E-03  0.969E-02    1.78       1.0  T
   6     -9.9419892 -0.117019E-04  0.800E-02    1.79       1.0  T
   7     -9.9420661 -0.768625E-04  0.278E-02    1.78       1.1  T
   8     -9.9420721 -0.598299E-05  0.188E-02    1.78       1.7  T
   9     -9.9420789 -0.688093E-05  0.989E-03    1.78       3.2  T
  10     -9.9420812 -0.223842E-05  0.417E-03    1.78       7.6  T
  11     -9.9420815 -0.287274E-06  0.753E-04    1.78      42.0  T
  12     -9.9420815 -0.559305E-08  0.264E-04    1.78     119.6  T
     SCC iter.                  ...        0 min,  0.001 sec
     gradient                   ...        0 min,  0.001 sec
 * total energy  :    -9.7510003 Eh     change        0.1636070E-02 Eh
   gradient norm :     0.0563675 Eh/α   predicted     0.0000000E+00 (-100.00%)
   displ. norm   :     0.1784644 α      lambda       -0.5550747E-02
   maximum displ.:     0.1066548 α      in ANC's #15, #17, #5, ...

........................................................................
.............................. CYCLE   22 ..............................
........................................................................
   1     -9.9573659 -0.995737E+01  0.257E-01    1.87       0.0  T
   2     -9.9563204  0.104558E-02  0.244E-01    1.76       1.0  T
   3     -9.9545413  0.177909E-02  0.302E-01    1.99       1.0  T
   4     -9.9574187 -0.287744E-02  0.590E-02    1.84       1.0  T
   5     -9.9574461 -0.273587E-04  0.188E-02    1.85       1.7  T
   6     -9.9574354  0.107145E-04  0.246E-02    1.83       1.3  T
   7     -9.9574399 -0.459289E-05  0.173E-02    1.83       1.8  T
   8     -9.9574489 -0.890664E-05  0.121E-03    1.84      26.1  T
   9     -9.9574489 -0.870612E-09  0.225E-04    1.84     140.4  T
  10     -9.9574489 -0.364029E-09  0.125E-04    1.84     253.0  T
     SCC iter.                  ...        0 min,  0.001 sec
     gradient                   ...        0 min,  0.000 sec
 * total energy  :    -9.7544627 Eh     change       -0.3462374E-02 Eh
   gradient norm :     0.0162604 Eh/α   predicted    -0.2863767E-02 ( -17.29%)
   displ. norm   :     0.2092717 α      lambda       -0.8963811E-03
   maximum displ.:     0.1572524 α      in ANC's #15, #1, #5, ...

........................................................................
.............................. CYCLE   23 ..............................
........................................................................
   1     -9.9595339 -0.995953E+01  0.217E-01    1.90       0.0  T
   2     -9.9591535  0.380389E-03  0.175E-01    1.84       1.0  T
   3     -9.9563855  0.276801E-02  0.308E-01    2.05       1.0  T
   4     -9.9595373 -0.315186E-02  0.540E-02    1.89       1.0  T
   5     -9.9595643 -0.270069E-04  0.139E-02    1.89       2.3  T
   6     -9.9595561  0.821483E-05  0.194E-02    1.88       1.6  T
   7     -9.9595660 -0.992126E-05  0.564E-03    1.89       5.6  T
   8     -9.9595668 -0.720847E-06  0.846E-04    1.89      37.4  T
   9     -9.9595668 -0.359277E-09  0.194E-04    1.89     162.9  T
     SCC iter.                  ...        0 min,  0.001 sec
     gradient                   ...        0 min,  0.001 sec
 * total energy  :    -9.7551315 Eh     change       -0.6688379E-03 Eh
   gradient norm :     0.0056563 Eh/α   predicted    -0.4678208E-03 ( -30.05%)
   displ. norm   :     0.3471837 α      lambda       -0.7799339E-03
   maximum displ.:     0.2453301 α      in ANC's #15, #7, #10, ...

........................................................................
.............................. CYCLE   24 ..............................
........................................................................
   1     -9.9566090 -0.995661E+01  0.399E-01    1.95       0.0  T
   2     -9.9563816  0.227335E-03  0.259E-01    1.89       1.0  T
   3     -9.9458491  0.105325E-01  0.564E-01    2.24       1.0  T
   4     -9.9565847 -0.107356E-01  0.678E-02    1.93       1.0  T
   5     -9.9566210 -0.362666E-04  0.218E-02    1.94       1.5  T
   6     -9.9566196  0.140658E-05  0.232E-02    1.92       1.4  T
   7     -9.9566325 -0.129064E-04  0.672E-03    1.93       4.7  T
   8     -9.9566335 -0.972000E-06  0.125E-03    1.93      25.4  T
   9     -9.9566335 -0.278375E-07  0.334E-04    1.93      94.7  T
  10     -9.9566335  0.187502E-09  0.173E-04    1.93     182.4  T
     SCC iter.                  ...        0 min,  0.001 sec
     gradient                   ...        0 min,  0.001 sec
 * total energy  :    -9.7555893 Eh     change       -0.4578383E-03 Eh
   gradient norm :     0.0102938 Eh/α   predicted    -0.4369647E-03 (  -4.56%)
   displ. norm   :     0.2161371 α      lambda       -0.3575430E-03
   maximum displ.:     0.1690974 α      in ANC's #15, #10, #1, ...

........................................................................
.............................. CYCLE   25 ..............................
........................................................................
   1     -9.9587094 -0.995871E+01  0.190E-01    1.94       0.0  T
   2     -9.9587080  0.143894E-05  0.118E-01    1.94       1.0  T
   3     -9.9585624  0.145592E-03  0.861E-02    1.91       1.0  T
   4     -9.9586338 -0.714610E-04  0.464E-02    1.96       1.0  T
   5     -9.9587102 -0.763624E-04  0.111E-02    1.93       2.8  T
   6     -9.9587119 -0.170480E-05  0.730E-03    1.94       4.3  T
   7     -9.9587122 -0.285911E-06  0.108E-03    1.94      29.4  T
   8     -9.9587122 -0.975622E-08  0.419E-04    1.94      75.4  T
   9     -9.9587122 -0.624278E-09  0.123E-04    1.94     258.1  T
     SCC iter.                  ...        0 min,  0.001 sec
     gradient                   ...        0 min,  0.001 sec
 * total energy  :    -9.7557987 Eh     change       -0.2093376E-03 Eh
   gradient norm :     0.0090264 Eh/α   predicted    -0.1871243E-03 ( -10.61%)
   displ. norm   :     0.1953923 α      lambda       -0.2285991E-03
   maximum displ.:     0.1354762 α      in ANC's #15, #10, #5, ...

........................................................................
.............................. CYCLE   26 ..............................
........................................................................
   1     -9.9595857 -0.995959E+01  0.243E-01    1.92       0.0  T
   2     -9.9595072  0.784817E-04  0.158E-01    1.95       1.0  T
   3     -9.9540479  0.545928E-02  0.377E-01    1.75       1.0  T
   4     -9.9595409 -0.549297E-02  0.479E-02    1.94       1.0  T
   5     -9.9595910 -0.500996E-04  0.133E-02    1.93       2.4  T
   6     -9.9595942 -0.321972E-05  0.666E-03    1.93       4.8  T
   7     -9.9595938  0.354695E-06  0.507E-03    1.92       6.2  T
   8     -9.9595943 -0.486573E-06  0.944E-04    1.93      33.5  T
   9     -9.9595943 -0.908237E-08  0.586E-04    1.93      54.0  T
     SCC iter.                  ...        0 min,  0.002 sec
     gradient                   ...        0 min,  0.000 sec
 * total energy  :    -9.7559826 Eh     change       -0.1839214E-03 Eh
   gradient norm :     0.0053792 Eh/α   predicted    -0.1186611E-03 ( -35.48%)
   displ. norm   :     0.3434519 α      lambda       -0.2798950E-03
   maximum displ.:     0.2252806 α      in ANC's #15, #10, #5, ...

........................................................................
.............................. CYCLE   27 ..............................
........................................................................
   1     -9.9567839 -0.995678E+01  0.509E-01    1.90       0.0  T
   2     -9.9566308  0.153078E-03  0.320E-01    1.94       1.0  T
   3     -9.9390232  0.176077E-01  0.667E-01    1.61       1.0  T
   4     -9.9566412 -0.176181E-01  0.807E-02    1.94       1.0  T
   5     -9.9567859 -0.144659E-03  0.272E-02    1.92       1.2  T
   6     -9.9568012 -0.153277E-04  0.117E-02    1.91       2.7  T
   7     -9.9568008  0.425887E-06  0.944E-03    1.91       3.3  T
   8     -9.9568013 -0.557547E-06  0.224E-03    1.91      14.1  T
   9     -9.9568014 -0.355963E-07  0.157E-03    1.91      20.1  T
  10     -9.9568014 -0.616548E-07  0.231E-04    1.91     136.7  T
  11     -9.9568014 -0.596302E-09  0.269E-05    1.91    1177.0  T
     SCC iter.                  ...        0 min,  0.002 sec
     gradient                   ...        0 min,  0.001 sec
 * total energy  :    -9.7561341 Eh     change       -0.1514677E-03 Eh
   gradient norm :     0.0075519 Eh/α   predicted    -0.1564519E-03 (   3.29%)
   displ. norm   :     0.1950260 α      lambda       -0.1670547E-03
   maximum displ.:     0.1366415 α      in ANC's #15, #9, #5, ...

........................................................................
.............................. CYCLE   28 ..............................
........................................................................
   1     -9.9591064 -0.995911E+01  0.303E-01    1.90       0.0  T
   2     -9.9590827  0.236864E-04  0.189E-01    1.91       1.0  T
   3     -9.9560365  0.304619E-02  0.282E-01    1.77       1.0  T
   4     -9.9590874 -0.305096E-02  0.335E-02    1.91       1.0  T
   5     -9.9591092 -0.217692E-04  0.116E-02    1.90       2.7  T
   6     -9.9591094 -0.207628E-06  0.607E-03    1.90       5.2  T
   7     -9.9591097 -0.302000E-06  0.306E-03    1.90      10.3  T
   8     -9.9591099 -0.219322E-06  0.956E-04    1.90      33.1  T
   9     -9.9591100 -0.919898E-08  0.371E-04    1.90      85.2  T
     SCC iter.                  ...        0 min,  0.001 sec
     gradient                   ...        0 min,  0.000 sec
 * total energy  :    -9.7562248 Eh     change       -0.9073814E-04 Eh
   gradient norm :     0.0062120 Eh/α   predicted    -0.8670353E-04 (  -4.45%)
   displ. norm   :     0.1574696 α      lambda       -0.8448589E-04
   maximum displ.:     0.1078819 α      in ANC's #15, #9, #5, ...

........................................................................
.............................. CYCLE   29 ..............................
........................................................................
   1     -9.9599558 -0.995996E+01  0.216E-01    1.90       0.0  T
   2     -9.9599450  0.107994E-04  0.137E-01    1.89       1.0  T
   3     -9.9587791  0.116584E-02  0.184E-01    1.99       1.0  T
   4     -9.9599259 -0.114680E-02  0.336E-02    1.89       1.0  T
   5     -9.9599576 -0.317083E-04  0.803E-03    1.90       3.9  T
   6     -9.9599575  0.959241E-07  0.576E-03    1.90       5.5  T
   7     -9.9599577 -0.182751E-06  0.255E-03    1.90      12.4  T
   8     -9.9599579 -0.178635E-06  0.569E-04    1.90      55.6  T
   9     -9.9599579 -0.191899E-08  0.182E-04    1.90     173.9  T
     SCC iter.                  ...        0 min,  0.001 sec
     gradient                   ...        0 min,  0.000 sec
 * total energy  :    -9.7562887 Eh     change       -0.6387227E-04 Eh
   gradient norm :     0.0046457 Eh/α   predicted    -0.4329153E-04 ( -32.22%)
   displ. norm   :     0.3944295 α      lambda       -0.1710537E-03
   maximum displ.:     0.2652106 α      in ANC's #15, #11, #5, ...

........................................................................
.............................. CYCLE   30 ..............................
........................................................................
   1     -9.9574729 -0.995747E+01  0.583E-01    1.92       0.0  T
   2     -9.9573212  0.151628E-03  0.371E-01    1.88       1.0  T
   3     -9.9450838  0.122374E-01  0.611E-01    2.24       1.0  T
   4     -9.9574105 -0.123267E-01  0.696E-02    1.90       1.0  T
   5     -9.9574852 -0.746814E-04  0.239E-02    1.92       1.3  T
   6     -9.9574857 -0.588505E-06  0.214E-02    1.91       1.5  T
   7     -9.9574868 -0.106296E-05  0.160E-02    1.91       2.0  T
   8     -9.9574943 -0.748412E-05  0.248E-03    1.92      12.7  T
   9     -9.9574944 -0.129449E-06  0.127E-03    1.92      24.9  T
  10     -9.9574944 -0.206756E-07  0.401E-04    1.92      78.8  T
  11     -9.9574944 -0.359494E-08  0.555E-05    1.92     570.2  T
     SCC iter.                  ...        0 min,  0.001 sec
     gradient                   ...        0 min,  0.000 sec
 * total energy  :    -9.7563589 Eh     change       -0.7027232E-04 Eh
   gradient norm :     0.0065698 Eh/α   predicted    -0.9883681E-04 (  40.65%)
   displ. norm   :     0.1487363 α      lambda       -0.1364975E-03
   maximum displ.:     0.0786550 α      in ANC's #15, #12, #14, ...

........................................................................
.............................. CYCLE   31 ..............................
........................................................................
   1     -9.9602926 -0.996029E+01  0.221E-01    1.92       0.0  T
   2     -9.9602619  0.306941E-04  0.142E-01    1.90       1.0  T
   3     -9.9579643  0.229760E-02  0.260E-01    2.06       1.0  T
   4     -9.9602502 -0.228595E-02  0.431E-02    1.91       1.0  T
   5     -9.9602971 -0.469128E-04  0.879E-03    1.92       3.6  T
   6     -9.9602973 -0.192696E-06  0.726E-03    1.92       4.4  T
   7     -9.9602971  0.200591E-06  0.479E-03    1.92       6.6  T
   8     -9.9602979 -0.735363E-06  0.530E-04    1.92      59.7  T
   9     -9.9602979 -0.508194E-08  0.141E-04    1.92     223.7  T
     SCC iter.                  ...        0 min,  0.001 sec
     gradient                   ...        0 min,  0.000 sec
 * total energy  :    -9.7564065 Eh     change       -0.4761002E-04 Eh
   gradient norm :     0.0057360 Eh/α   predicted    -0.6976091E-04 (  46.53%)
   displ. norm   :     0.0893201 α      lambda       -0.8111729E-04
   maximum displ.:     0.0371851 α      in ANC's #8, #14, #15, ...

........................................................................
.............................. CYCLE   32 ..............................
........................................................................
   1     -9.9609386 -0.996094E+01  0.189E-01    1.91       0.0  T
   2     -9.9609328  0.573069E-05  0.118E-01    1.92       1.0  T
   3     -9.9601829  0.749933E-03  0.141E-01    1.85       1.0  T
   4     -9.9609334 -0.750474E-03  0.196E-02    1.92       1.6  T
   5     -9.9609395 -0.610235E-05  0.722E-03    1.92       4.4  T
   6     -9.9609396 -0.130804E-06  0.383E-03    1.92       8.3  T
   7     -9.9609397 -0.128655E-06  0.695E-04    1.92      45.5  T
   8     -9.9609397  0.596926E-08  0.649E-04    1.92      48.7  T
     SCC iter.                  ...        0 min,  0.001 sec
     gradient                   ...        0 min,  0.000 sec
 * total energy  :    -9.7564594 Eh     change       -0.5288648E-04 Eh
   gradient norm :     0.0042111 Eh/α   predicted    -0.4088111E-04 ( -22.70%)
   displ. norm   :     0.2590867 α      lambda       -0.9758679E-04
   maximum displ.:     0.1315031 α      in ANC's #15, #11, #14, ...

........................................................................
.............................. CYCLE   33 ..............................
........................................................................
   1     -9.9581974 -0.995820E+01  0.533E-01    1.91       0.0  T
   2     -9.9581460  0.514244E-04  0.334E-01    1.93       1.0  T
   3     -9.9508367  0.730928E-02  0.434E-01    1.71       1.0  T
   4     -9.9581171 -0.728046E-02  0.663E-02    1.93       1.0  T
   5     -9.9582021 -0.849389E-04  0.214E-02    1.92       1.5  T
   6     -9.9582060 -0.393969E-05  0.114E-02    1.91       2.8  T
   7     -9.9582066 -0.585905E-06  0.518E-03    1.91       6.1  T
   8     -9.9582073 -0.737558E-06  0.147E-03    1.91      21.5  T
   9     -9.9582074 -0.284353E-07  0.789E-04    1.91      40.1  T
  10     -9.9582074 -0.169129E-07  0.222E-04    1.91     142.6  T
     SCC iter.                  ...        0 min,  0.002 sec
     gradient                   ...        0 min,  0.001 sec
 * total energy  :    -9.7565160 Eh     change       -0.5657919E-04 Eh
   gradient norm :     0.0075870 Eh/α   predicted    -0.5206937E-04 (  -7.97%)
   displ. norm   :     0.1915596 α      lambda       -0.1296620E-03
   maximum displ.:     0.1233973 α      in ANC's #14, #8, #11, ...

........................................................................
.............................. CYCLE   34 ..............................
........................................................................
   1     -9.9598229 -0.995982E+01  0.239E-01    1.90       0.0  T
   2     -9.9598108  0.120960E-04  0.149E-01    1.91       1.0  T
   3     -9.9582291  0.158176E-02  0.206E-01    1.80       1.0  T
   4     -9.9597978 -0.156879E-02  0.403E-02    1.91       1.0  T
   5     -9.9598270 -0.291362E-04  0.123E-02    1.90       2.6  T
   6     -9.9598267  0.250632E-06  0.918E-03    1.89       3.4  T
   7     -9.9598273 -0.594194E-06  0.225E-03    1.89      14.0  T
   8     -9.9598273  0.539518E-07  0.181E-03    1.90      17.4  T
   9     -9.9598274 -0.800294E-07  0.406E-04    1.89      77.9  T
  10     -9.9598274 -0.369730E-08  0.578E-05    1.89     547.2  T
     SCC iter.                  ...        0 min,  0.001 sec
     gradient                   ...        0 min,  0.000 sec
 * total energy  :    -9.7565556 Eh     change       -0.3962650E-04 Eh
   gradient norm :     0.0067750 Eh/α   predicted    -0.6720919E-04 (  69.61%)
   displ. norm   :     0.1277274 α      lambda       -0.1229741E-03
   maximum displ.:     0.0613829 α      in ANC's #14, #12, #8, ...

........................................................................
.............................. CYCLE   35 ..............................
........................................................................
   1     -9.9593654 -0.995937E+01  0.347E-01    1.89       0.0  T
   2     -9.9592949  0.704907E-04  0.222E-01    1.92       1.0  T
   3     -9.9510253  0.826959E-02  0.461E-01    1.68       1.0  T
   4     -9.9593566 -0.833136E-02  0.277E-02    1.90       1.1  T
   5     -9.9593709 -0.142579E-04  0.144E-02    1.90       2.2  T
   6     -9.9593723 -0.146045E-05  0.794E-03    1.89       4.0  T
   7     -9.9593729 -0.593971E-06  0.468E-03    1.89       6.8  T
   8     -9.9593734 -0.436034E-06  0.695E-04    1.89      45.5  T
   9     -9.9593734 -0.465811E-09  0.432E-04    1.89      73.3  T
     SCC iter.                  ...        0 min,  0.002 sec
     gradient                   ...        0 min,  0.001 sec
 * total energy  :    -9.7566210 Eh     change       -0.6536007E-04 Eh
   gradient norm :     0.0029857 Eh/α   predicted    -0.6249217E-04 (  -4.39%)
   displ. norm   :     0.0530131 α      lambda       -0.2804405E-04
   maximum displ.:     0.0235305 α      in ANC's #5, #15, #14, ...

........................................................................
.............................. CYCLE   36 ..............................
........................................................................
   1     -9.9603029 -0.996030E+01  0.707E-02    1.90       0.0  T
   2     -9.9602850  0.178775E-04  0.515E-02    1.89       1.0  T
   3     -9.9598219  0.463177E-03  0.114E-01    1.96       1.0  T
   4     -9.9603030 -0.481114E-03  0.135E-02    1.90       2.4  T
   5     -9.9603046 -0.162098E-05  0.470E-03    1.90       6.7  T
   6     -9.9603044  0.161065E-06  0.472E-03    1.90       6.7  T
   7     -9.9603047 -0.245034E-06  0.177E-03    1.90      17.9  T
   8     -9.9603048 -0.880708E-07  0.241E-04    1.90     131.3  T
   9     -9.9603048 -0.641673E-09  0.519E-05    1.90     609.7  T
     SCC iter.                  ...        0 min,  0.001 sec
     gradient                   ...        0 min,  0.000 sec
 * total energy  :    -9.7566371 Eh     change       -0.1612714E-04 Eh
   gradient norm :     0.0023152 Eh/α   predicted    -0.1406242E-04 ( -12.80%)
   displ. norm   :     0.1039289 α      lambda       -0.3845089E-04
   maximum displ.:     0.0494438 α      in ANC's #8, #1, #14, ...

........................................................................
.............................. CYCLE   37 ..............................
........................................................................
   1     -9.9594456 -0.995945E+01  0.250E-01    1.91       0.0  T
   2     -9.9594457 -0.941771E-07  0.155E-01    1.90       1.0  T
   3     -9.9594054  0.403846E-04  0.540E-02    1.92       1.0  T
   4     -9.9594333 -0.279810E-04  0.218E-02    1.89       1.5  T
   5     -9.9594400 -0.662982E-05  0.164E-02    1.91       1.9  T
   6     -9.9594471 -0.718437E-05  0.210E-03    1.90      15.0  T
   7     -9.9594472 -0.407020E-07  0.110E-03    1.90      28.8  T
   8     -9.9594472 -0.383943E-08  0.403E-04    1.90      78.5  T
   9     -9.9594472 -0.145853E-09  0.144E-04    1.90     219.0  T
     SCC iter.                  ...        0 min,  0.001 sec
     gradient                   ...        0 min,  0.000 sec
 * total energy  :    -9.7566649 Eh     change       -0.2780243E-04 Eh
   gradient norm :     0.0033500 Eh/α   predicted    -0.1943369E-04 ( -30.10%)
   displ. norm   :     0.1875550 α      lambda       -0.6601773E-04
   maximum displ.:     0.0785590 α      in ANC's #1, #5, #8, ...

........................................................................
.............................. CYCLE   38 ..............................
........................................................................
   1     -9.9590402 -0.995904E+01  0.309E-01    1.90       0.0  T
   2     -9.9590373  0.287139E-05  0.193E-01    1.91       1.0  T
   3     -9.9585417  0.495603E-03  0.122E-01    1.85       1.0  T
   4     -9.9589997 -0.458016E-03  0.422E-02    1.92       1.0  T
   5     -9.9590425 -0.427743E-04  0.136E-02    1.90       2.3  T
   6     -9.9590425  0.133215E-07  0.484E-03    1.90       6.5  T
   7     -9.9590428 -0.271693E-06  0.104E-03    1.90      30.4  T
   8     -9.9590428 -0.165762E-08  0.557E-04    1.90      56.8  T
   9     -9.9590428 -0.290196E-08  0.998E-05    1.90     316.7  T
     SCC iter.                  ...        0 min,  0.001 sec
     gradient                   ...        0 min,  0.000 sec
 * total energy  :    -9.7567126 Eh     change       -0.4769849E-04 Eh
   gradient norm :     0.0036681 Eh/α   predicted    -0.3416911E-04 ( -28.36%)
   displ. norm   :     0.1992725 α      lambda       -0.5764755E-04
   maximum displ.:     0.0927132 α      in ANC's #8, #10, #5, ...

........................................................................
.............................. CYCLE   39 ..............................
........................................................................
   1     -9.9576866 -0.995769E+01  0.333E-01    1.89       0.0  T
   2     -9.9576732  0.134012E-04  0.212E-01    1.90       1.0  T
   3     -9.9556640  0.200920E-02  0.229E-01    1.78       1.0  T
   4     -9.9576533 -0.198931E-02  0.443E-02    1.91       1.0  T
   5     -9.9576882 -0.349373E-04  0.158E-02    1.90       2.0  T
   6     -9.9576896 -0.135873E-05  0.703E-03    1.89       4.5  T
   7     -9.9576899 -0.336862E-06  0.198E-03    1.89      15.9  T
   8     -9.9576900 -0.117196E-06  0.486E-04    1.89      65.1  T
   9     -9.9576900 -0.129710E-08  0.196E-04    1.89     161.1  T
     SCC iter.                  ...        0 min,  0.001 sec
     gradient                   ...        0 min,  0.000 sec
 * total energy  :    -9.7567452 Eh     change       -0.3253040E-04 Eh
   gradient norm :     0.0049582 Eh/α   predicted    -0.2996868E-04 (  -7.87%)
   displ. norm   :     0.1471980 α      lambda       -0.5424811E-04
   maximum displ.:     0.0744823 α      in ANC's #11, #5, #15, ...

[...]
   9     -9.9543966 -0.145405E-06  0.649E-04    1.85      48.7  T
  10     -9.9543966  0.238733E-08  0.381E-04    1.85      83.0  T
     SCC iter.                  ...        0 min,  0.002 sec
     gradient                   ...        0 min,  0.000 sec
 * total energy  :    -9.7598347 Eh     change       -0.6439840E-05 Eh
   gradient norm :     0.0042524 Eh/α   predicted    -0.3403682E-04 ( 428.54%)
   displ. norm   :     0.0967167 α      lambda       -0.6539107E-04
   maximum displ.:     0.0503204 α      in ANC's #1, #3, #10, ...

........................................................................
.............................. CYCLE  106 ..............................
........................................................................
   1     -9.9561965 -0.995620E+01  0.289E-01    1.85       0.0  T
   2     -9.9561799  0.166355E-04  0.182E-01    1.83       1.0  T
   3     -9.9541743  0.200551E-02  0.223E-01    1.97       1.0  T
   4     -9.9561981 -0.202380E-02  0.133E-02    1.84       2.4  T
   5     -9.9561982 -0.959929E-07  0.919E-03    1.84       3.4  T
   6     -9.9561980  0.198858E-06  0.582E-03    1.84       5.4  T
   7     -9.9561987 -0.693162E-06  0.175E-03    1.84      18.1  T
   8     -9.9561988 -0.498822E-07  0.792E-04    1.85      39.9  T
   9     -9.9561988 -0.152546E-07  0.174E-04    1.85     181.7  T
     SCC iter.                  ...        0 min,  0.001 sec
     gradient                   ...        0 min,  0.001 sec
 * total energy  :    -9.7598643 Eh     change       -0.2963437E-04 Eh
   gradient norm :     0.0022109 Eh/α   predicted    -0.3300069E-04 (  11.36%)
   displ. norm   :     0.0496812 α      lambda       -0.1251442E-04
   maximum displ.:     0.0219543 α      in ANC's #8, #10, #3, ...

........................................................................
.............................. CYCLE  107 ..............................
........................................................................
   1     -9.9562174 -0.995622E+01  0.774E-02    1.84       0.0  T
   2     -9.9561981  0.193486E-04  0.521E-02    1.86       1.0  T
   3     -9.9554757  0.722361E-03  0.134E-01    1.77       1.0  T
   4     -9.9562183 -0.742625E-03  0.770E-03    1.84       4.1  T
   5     -9.9562192 -0.867921E-06  0.347E-03    1.84       9.1  T
   6     -9.9562192  0.551552E-07  0.275E-03    1.84      11.5  T
   7     -9.9562192 -0.771615E-07  0.134E-03    1.84      23.7  T
   8     -9.9562193 -0.531536E-07  0.306E-04    1.84     103.5  T
   9     -9.9562193 -0.449649E-09  0.902E-05    1.84     350.7  T
     SCC iter.                  ...        0 min,  0.002 sec
     gradient                   ...        0 min,  0.001 sec
 * total energy  :    -9.7598718 Eh     change       -0.7536072E-05 Eh
   gradient norm :     0.0014024 Eh/α   predicted    -0.6270863E-05 ( -16.79%)
   displ. norm   :     0.0329407 α      lambda       -0.5961896E-05
   maximum displ.:     0.0184297 α      in ANC's #9, #10, #2, ...

........................................................................
.............................. CYCLE  108 ..............................
........................................................................
   1     -9.9558865 -0.995589E+01  0.864E-02    1.84       0.0  T
   2     -9.9558829  0.361600E-05  0.548E-02    1.85       1.0  T
   3     -9.9555434  0.339534E-03  0.936E-02    1.79       1.0  T
   4     -9.9558740 -0.330565E-03  0.226E-02    1.85       1.4  T
   5     -9.9558872 -0.132008E-04  0.355E-03    1.84       8.9  T
   6     -9.9558871  0.188503E-07  0.208E-03    1.84      15.2  T
   7     -9.9558872 -0.299916E-07  0.754E-04    1.84      41.9  T
   8     -9.9558872 -0.107950E-07  0.313E-04    1.84     100.9  T
     SCC iter.                  ...        0 min,  0.001 sec
     gradient                   ...        0 min,  0.001 sec
 * total energy  :    -9.7598770 Eh     change       -0.5195570E-05 Eh
   gradient norm :     0.0008263 Eh/α   predicted    -0.2982156E-05 ( -42.60%)
   displ. norm   :     0.0553604 α      lambda       -0.4264512E-05
   maximum displ.:     0.0295727 α      in ANC's #8, #3, #7, ...

........................................................................
.............................. CYCLE  109 ..............................
........................................................................
   1     -9.9554807 -0.995548E+01  0.680E-02    1.84       0.0  T
   2     -9.9554796  0.109101E-05  0.426E-02    1.84       1.0  T
   3     -9.9553382  0.141336E-03  0.583E-02    1.81       1.0  T
   4     -9.9554807 -0.142470E-03  0.415E-03    1.84       7.6  T
   5     -9.9554808 -0.791771E-07  0.289E-03    1.84      10.9  T
   6     -9.9554808 -0.479867E-07  0.603E-04    1.84      52.5  T
   7     -9.9554808 -0.390725E-08  0.287E-04    1.84     110.0  T
     SCC iter.                  ...        0 min,  0.001 sec
     gradient                   ...        0 min,  0.001 sec
 * total energy  :    -9.7598809 Eh     change       -0.3852398E-05 Eh
   gradient norm :     0.0009005 Eh/α   predicted    -0.2135149E-05 ( -44.58%)
   displ. norm   :     0.0594511 α      lambda       -0.3886291E-05
   maximum displ.:     0.0328534 α      in ANC's #8, #3, #7, ...

   *** GEOMETRY OPTIMIZATION CONVERGED AFTER 109 ITERATIONS ***

------------------------------------------------------------------------
 total energy gain   :        -0.4790611 Eh     -300.6154 kcal/mol
 total RMSD          :         3.1900657 a0        1.6881 Å
 total power (kW/mol):       -11.5392181 (step)-3306.7749 (real)
------------------------------------------------------------------------

 ANCopt (total)                0 d,  0 h,  0 min,  0.380 sec
 optimizer setup                ...        0 min,  0.000 sec (  0.007%)
 model hessian                  ...        0 min,  0.001 sec (  0.318%)
 ANC generation                 ...        0 min,  0.000 sec (  0.093%)
 coordinate transformation      ...        0 min,  0.000 sec (  0.072%)
 single point calculation       ...        0 min,  0.369 sec ( 97.112%)
 optimization log               ...        0 min,  0.003 sec (  0.715%)
 hessian update                 ...        0 min,  0.003 sec (  0.777%)
 rational function              ...        0 min,  0.002 sec (  0.472%)

================
 final structure:
================
10
 xtb: 6.5.1 (conda-forge)
Be           0.45540603648904       -0.03451654329159        0.54901678938327
C            0.01965936255066        1.06111727750615        1.69781155277473
C            0.52866617769035        0.94220055714175        2.99188102431844
C            0.97642685811035       -0.04752603305563        2.11232024625577
H            3.05058413430529       -0.87357877977500        3.48083322202180
H            3.69241748379968       -1.16351706239901        3.81958575981905
H            1.81610086910791        2.27276392342085        3.73576301670377
H            2.39222400600004        2.79783220569965        3.93520418646311
H           -0.65591708437304        0.49640574538572        4.52770754866207
H           -1.18756784366690        0.24553370936297        5.07737665358539

 Bond Distances (Angstroems)
 ---------------------------
Be1-C2=1.6462        Be1-C4=1.6479        C2-Be1=1.6462        C2-C3=1.3957         C2-C4=1.5219         C3-C2=1.3957         
C3-C4=1.3977         C4-Be1=1.6479        C4-C2=1.5219         C4-C3=1.3977         H5-H6=0.7815         H6-H5=0.7815         
H7-H8=0.8046         H8-H7=0.8046         H9-H10=0.8048        H10-H9=0.8048        
 H  H  Rav=0.7970 sigma=0.0109  Rmin=0.7815  Rmax=0.8048     3
 C  Be Rav=1.6471 sigma=0.0008  Rmin=1.6462  Rmax=1.6479     2
 C  C  Rav=1.4384 sigma=0.0590  Rmin=1.3957  Rmax=1.5219     3

 selected bond angles (degree)
 --------------------
C4-Be1-C2= 55.04               C3-C2-Be1=119.59               C4-C2-Be1= 62.54               C4-C2-C3= 57.05                
C4-C3-C2= 66.03                C2-C4-Be1= 62.43               C3-C4-Be1=119.35               C3-C4-C2= 56.92                

 selected dihedral angles (degree)
 ---------------------------------
C3-C2-Be1-C4=359.91           C4-C3-C2-Be1=  0.09           C3-C4-Be1-C2=  0.09           Be1-C4-C2-C3=179.91           
C3-C4-C2-Be1=180.09           Be1-C4-C3-C2=359.91           

 CMA Distance (Angstroems)
 ---------------------------
R(CMA):  2.1050
           -------------------------------------------------
          |                Final Singlepoint                |
           -------------------------------------------------

          ...................................................
          :                      SETUP                      :
          :.................................................:
          :  # basis functions                  22          :
          :  # atomic orbitals                  22          :
          :  # shells                           14          :
          :  # electrons                        20          :
          :  max. iterations                   250          :
          :  Hamiltonian                  GFN2-xTB          :
          :  restarted?                      false          :
          :  GBSA solvation                  false          :
          :  PC potential                    false          :
          :  electronic temp.          300.0000000     K    :
          :  accuracy                    1.0000000          :
          :  -> integral cutoff          0.2500000E+02      :
          :  -> integral neglect         0.1000000E-07      :
          :  -> SCF convergence          0.1000000E-05 Eh   :
          :  -> wf. convergence          0.1000000E-03 e    :
          :  Broyden damping             0.4000000          :
          ...................................................

 iter      E             dE          RMSdq      gap      omega  full diag
   1     -9.9554808 -0.995548E+01  0.104E-04    1.84       0.0  T
   2     -9.9554808  0.904864E-09  0.162E-04    1.84     194.7  T
   3     -9.9554808 -0.754657E-09  0.875E-05    1.84     361.6  T

   *** convergence criteria satisfied after 3 iterations ***

         #    Occupation            Energy/Eh            Energy/eV
      -------------------------------------------------------------
         1        2.0000           -0.6203051             -16.8794
       ...           ...                  ...                  ...
         4        2.0000           -0.4486516             -12.2084
         5        2.0000           -0.4419466             -12.0260
         6        2.0000           -0.4375143             -11.9054
         7        2.0000           -0.4143923             -11.2762
         8        2.0000           -0.3803704             -10.3504
         9        2.0000           -0.3676892             -10.0053
        10        2.0000           -0.3348437              -9.1116 (HOMO)
        11                         -0.2672264              -7.2716 (LUMO)
        12                         -0.2411238              -6.5613
        13                         -0.2378244              -6.4715
        14                         -0.1180907              -3.2134
        15                         -0.1156032              -3.1457
       ...                                ...                  ...
        22                          0.5536893              15.0667
      -------------------------------------------------------------
                  HL-Gap            0.0676173 Eh            1.8400 eV
             Fermi-level           -0.3010351 Eh           -8.1916 eV

 SCC (total)                   0 d,  0 h,  0 min,  0.001 sec
 SCC setup                      ...        0 min,  0.000 sec (  2.260%)
 Dispersion                     ...        0 min,  0.000 sec (  5.129%)
 classical contributions        ...        0 min,  0.000 sec (  1.826%)
 integral evaluation            ...        0 min,  0.000 sec (  7.846%)
 iterations                     ...        0 min,  0.000 sec ( 36.731%)
 molecular gradient             ...        0 min,  0.000 sec ( 38.839%)
 printout                       ...        0 min,  0.000 sec (  6.368%)

         :::::::::::::::::::::::::::::::::::::::::::::::::::::
         ::                     SUMMARY                     ::
         :::::::::::::::::::::::::::::::::::::::::::::::::::::
         :: total energy              -9.759880873434 Eh    ::
         :: gradient norm              0.000899932850 Eh/a0 ::
         :: HOMO-LUMO gap              1.839960067998 eV    ::
         ::.................................................::
         :: SCC energy                -9.955480837631 Eh    ::
         :: -> isotropic ES           -0.038538661502 Eh    ::
         :: -> anisotropic ES          0.023791404305 Eh    ::
         :: -> anisotropic XC          0.017811087165 Eh    ::
         :: -> dispersion             -0.003834186933 Eh    ::
         :: repulsion energy           0.195588463233 Eh    ::
         :: add. restraining           0.000000000000 Eh    ::
         :: total charge               0.000000000000 e     ::
         :::::::::::::::::::::::::::::::::::::::::::::::::::::

           -------------------------------------------------
          |                Property Printout                |
           -------------------------------------------------

    * Orbital Energies and Occupations

         #    Occupation            Energy/Eh            Energy/eV
      -------------------------------------------------------------
         1        2.0000           -0.6203051             -16.8794
         2        2.0000           -0.4986299             -13.5684
         3        2.0000           -0.4965026             -13.5105
         4        2.0000           -0.4486516             -12.2084
         5        2.0000           -0.4419466             -12.0260
         6        2.0000           -0.4375143             -11.9054
         7        2.0000           -0.4143923             -11.2762
         8        2.0000           -0.3803704             -10.3504
         9        2.0000           -0.3676892             -10.0053
        10        2.0000           -0.3348437              -9.1116 (HOMO)
        11                         -0.2672264              -7.2716 (LUMO)
        12                         -0.2411238              -6.5613
        13                         -0.2378244              -6.4715
        14                         -0.1180907              -3.2134
        15                         -0.1156032              -3.1457
        16                          0.0805001               2.1905
        17                          0.1540453               4.1918
        18                          0.1614769               4.3940
        19                          0.1866968               5.0803
        20                          0.3034690               8.2578
        21                          0.4271630              11.6237
        22                          0.5536893              15.0667
      -------------------------------------------------------------
                  HL-Gap            0.0676173 Eh            1.8400 eV
             Fermi-level           -0.3010351 Eh           -8.1916 eV

     #   Z          covCN         q      C6AA      α(0)
     1   4 Be       1.715     0.508    14.032     8.733
     2   6 C        2.797    -0.187    32.882     9.394
     3   6 C        1.992    -0.114    34.201     9.444
     4   6 C        2.797    -0.183    32.789     9.381
     5   1 H        0.798     0.014     2.882     2.668
     6   1 H        0.798    -0.019     3.467     2.926
     7   1 H        0.714     0.023     2.846     2.675
     8   1 H        0.714    -0.033     3.907     3.135
     9   1 H        0.713     0.023     2.843     2.674
    10   1 H        0.713    -0.033     3.924     3.142

 Mol. C6AA /au·bohr⁶  :        995.500441
 Mol. C8AA /au·bohr⁸  :      23550.388946
 Mol. α(0) /au        :         54.171526


Wiberg/Mayer (AO) data.
largest (>0.10) Wiberg bond orders for each atom

 ---------------------------------------------------------------------------
     #   Z sym  total        # sym  WBO       # sym  WBO       # sym  WBO
 ---------------------------------------------------------------------------
     1   4 Be   2.151 --     2 C    0.906     4 C    0.899     3 C    0.313
     2   6 C    3.473 --     4 C    1.275     3 C    1.272     1 Be   0.906
     3   6 C    3.047 --     2 C    1.272     4 C    1.265     1 Be   0.313
     4   6 C    3.466 --     2 C    1.275     3 C    1.265     1 Be   0.899
     5   1 H    1.000 --     6 H    0.992
     6   1 H    1.000 --     5 H    0.992
     7   1 H    0.999 --     8 H    0.933
     8   1 H    0.999 --     7 H    0.933
     9   1 H    0.999 --    10 H    0.932
    10   1 H    0.999 --     9 H    0.932
 ---------------------------------------------------------------------------

Topologies differ in total number of bonds
Writing topology from bond orders to xtbtopo.mol

molecular dipole:
                 x           y           z       tot (Debye)
 q only:       -0.094      -0.643      -1.690
   full:       -0.138      -1.104      -2.863       7.806
molecular quadrupole (traceless):
                xx          xy          yy          xz          yz          zz
 q only:        4.647      -0.744       4.189      -3.060      -4.078      -8.835
  q+dip:        7.674      -0.293       5.528      -4.890      -5.917     -13.202
   full:        8.442       2.196       5.531      -6.134      -6.221     -13.974

           -------------------------------------------------
          |                Geometry Summary                 |
           -------------------------------------------------

      molecular mass/u    :       51.0920353
   center of mass at/Å    :        0.6184480       0.5281616       2.1807050
  moments of inertia/u·Å² :        0.5180449E+02   0.7877012E+02   0.1002972E+03
rotational constants/cm⁻¹ :        0.3254087E+00   0.2140105E+00   0.1680768E+00

 * 3 selected distances

     #   Z          #   Z                                           value/Å
     1   4 Be       2   6 C                                       1.6462134
     1   4 Be       4   6 C                                       1.6478926 (max)
     5   1 H        6   1 H                                       0.7815163 (min)

 * 2 distinct bonds (by element types)

   Z      Z             #   av. dist./Å        max./Å        min./Å
   1 H    1 H           1     0.7815163     0.7815163     0.7815163
   4 Be   6 C           2     1.6470530     1.6478926     1.6462134


optimized geometry written to: xtbopt.xyz


           -------------------------------------------------
          | TOTAL ENERGY               -9.759880873434 Eh   |
          | GRADIENT NORM               0.000899932850 Eh/α |
          | HOMO-LUMO GAP               1.839960067998 eV   |
           -------------------------------------------------
########################################################################
[WARNING] Runtime exception occurred
-3- restart_readRestart: Dimension missmatch in restart file.
-2- restart_readRestart: Multiplicity missmatch in restart file.
-1- restart_readRestart: Number of electron missmatch in restart file.
########################################################################

------------------------------------------------------------------------
 * finished run on 2025/06/07 at 03:27:55.425     
------------------------------------------------------------------------
Note: The following floating-point exceptions are signalling: IEEE_UNDERFLOW_FLAG
normal termination of xtb
 total:
 * wall-time:     0 d,  0 h,  0 min,  0.459 sec
 *  cpu-time:     0 d,  0 h,  0 min,  6.007 sec
 * ratio c/w:    13.085 speedup
 SCF:
 * wall-time:     0 d,  0 h,  0 min,  0.074 sec
 *  cpu-time:     0 d,  0 h,  0 min,  0.994 sec
 * ratio c/w:    13.370 speedup
 ANC optimizer:
 * wall-time:     0 d,  0 h,  0 min,  0.382 sec
 *  cpu-time:     0 d,  0 h,  0 min,  4.985 sec
 * ratio c/w:    13.053 speedup

