      -----------------------------------------------------------      
     |                   =====================                   |     
     |                           x T B                           |     
     |                   =====================                   |     
     |                         S. Grimme                         |     
     |          Mulliken Center for Theoretical Chemistry        |     
     |                    University of Bonn                     |     
      -----------------------------------------------------------      

   * xtb version 6.5.1 (conda-forge) compiled by 'runner@Mac-1657629245115.local' on 2022-07-12

   xtb is free software: you can redistribute it and/or modify it under
   the terms of the GNU Lesser General Public License as published by
   the Free Software Foundation, either version 3 of the License, or
   (at your option) any later version.
   
   xtb is distributed in the hope that it will be useful,
   but WITHOUT ANY WARRANTY; without even the implied warranty of
   MERCHANTABILITY or FITNESS FOR A PARTICULAR PURPOSE.  See the
   GNU Lesser General Public License for more details.
   
   Cite this work as:
   * C. Bannwarth, E. Caldeweyher, S. Ehlert, A. Hansen, P. Pracht,
     J. Seibert, S. Spicher, S. Grimme, WIREs Comput. Mol. Sci., 2020, 11,
     e01493. DOI: 10.1002/wcms.1493
   
   for GFN2-xTB:
   * C. Bannwarth, S. Ehlert and S. Grimme., J. Chem. Theory Comput., 2019,
     15, 1652-1671. DOI: 10.1021/acs.jctc.8b01176
   for GFN1-xTB:
   * S. Grimme, C. Bannwarth, P. Shushkov, J. Chem. Theory Comput., 2017,
     13, 1989-2009. DOI: 10.1021/acs.jctc.7b00118
   for GFN0-xTB:
   * P. Pracht, E. Caldeweyher, S. Ehlert, S. Grimme, ChemRxiv, 2019, preprint.
     DOI: 10.26434/chemrxiv.8326202.v1
   for GFN-FF:
   * S. Spicher and S. Grimme, Angew. Chem. Int. Ed., 2020, 59, 15665-15673.
     DOI: 10.1002/anie.202004239
   
   for ALPB and GBSA implicit solvation:
   * S. Ehlert, M. Stahn, S. Spicher, S. Grimme, J. Chem. Theory Comput.,
     2021, 17, 4250-4261. DOI: 10.1021/acs.jctc.1c00471
   
   for DFT-D4:
   * E. Caldeweyher, C. Bannwarth and S. Grimme, J. Chem. Phys., 2017,
     147, 034112. DOI: 10.1063/1.4993215
   * E. Caldeweyher, S. Ehlert, A. Hansen, H. Neugebauer, S. Spicher,
     C. Bannwarth and S. Grimme, J. Chem. Phys., 2019, 150, 154122.
     DOI: 10.1063/1.5090222
   * E. Caldeweyher, J.-M. Mewes, S. Ehlert and S. Grimme, Phys. Chem. Chem. Phys.
     2020, 22, 8499-8512. DOI: 10.1039/D0CP00502A
   
   for sTDA-xTB:
   * S. Grimme and C. Bannwarth, J. Chem. Phys., 2016, 145, 054103.
     DOI: 10.1063/1.4959605
   
   in the mass-spec context:
   * V. Asgeirsson, C. Bauer and S. Grimme, Chem. Sci., 2017, 8, 4879.
     DOI: 10.1039/c7sc00601b
   * J. Koopman and S. Grimme, ACS Omega 2019, 4, 12, 15120-15133.
     DOI: 10.1021/acsomega.9b02011
   
   for metadynamics refer to:
   * S. Grimme, J. Chem. Theory Comput., 2019, 155, 2847-2862
     DOI: 10.1021/acs.jctc.9b00143
   
   for SPH calculations refer to:
   * S. Spicher and S. Grimme, J. Chem. Theory Comput., 2021, 17, 1701-1714
     DOI: 10.1021/acs.jctc.0c01306
   
   with help from (in alphabetical order)
   P. Atkinson, C. Bannwarth, F. Bohle, G. Brandenburg, E. Caldeweyher
   M. Checinski, S. Dohm, S. Ehlert, S. Ehrlich, I. Gerasimov, C. Hölzer
   A. Katbashev, J. Koopman, C. Lavigne, S. Lehtola, F. März, M. Müller,
   F. Musil, H. Neugebauer, J. Pisarek, C. Plett, P. Pracht, F. Pultar,
   J. Seibert, P. Shushkov, S. Spicher, M. Stahn, M. Steiner, T. Strunk,
   J. Stückrath, T. Rose, and J. Unsleber
   
 * started run on 2025/06/07 at 03:27:56.360     

           -------------------------------------------------
          |                Calculation Setup                |
           -------------------------------------------------

          program call               : xtb BeC4H6.xyz --gfn 2 --opt
          coordinate file            : BeC4H6.xyz
          omp threads                :                    16

   ID    Z sym.   atoms
    1    4 Be     1
    2    6 C      2-5
    3    1 H      6-11

molecular fragmentation (1/2 indicates fragments):
12222222222
# atoms in fragment 1/2:     1    10
 fragment masses (1/2) :        9.01       54.09
CMA distance (Bohr)    :   5.718
constraining FC (au)   :  0.0500

           -------------------------------------------------
          |                 G F N 2 - x T B                 |
           -------------------------------------------------

        Reference                      10.1021/acs.jctc.8b01176
      * Hamiltonian:
        H0-scaling (s, p, d)           1.850000    2.230000    2.230000
        zeta-weighting                 0.500000
      * Dispersion:
        s8                             2.700000
        a1                             0.520000
        a2                             5.000000
        s9                             5.000000
      * Repulsion:
        kExp                           1.500000    1.000000
        rExp                           1.000000
      * Coulomb:
        alpha                          2.000000
        third order                    shell-resolved
        anisotropic                    true
        a3                             3.000000
        a5                             4.000000
        cn-shift                       1.200000
        cn-exp                         4.000000
        max-rad                        5.000000


          ...................................................
          :                      SETUP                      :
          :.................................................:
          :  # basis functions                  26          :
          :  # atomic orbitals                  26          :
          :  # shells                           16          :
          :  # electrons                        24          :
          :  max. iterations                   250          :
          :  Hamiltonian                  GFN2-xTB          :
          :  restarted?                      false          :
          :  GBSA solvation                  false          :
          :  PC potential                    false          :
          :  electronic temp.          300.0000000     K    :
          :  accuracy                    1.0000000          :
          :  -> integral cutoff          0.2500000E+02      :
          :  -> integral neglect         0.1000000E-07      :
          :  -> SCF convergence          0.1000000E-05 Eh   :
          :  -> wf. convergence          0.1000000E-03 e    :
          :  Broyden damping             0.4000000          :
          ...................................................

 iter      E             dE          RMSdq      gap      omega  full diag
   1     10.2736068  0.102736E+02  0.228E+01    0.15       0.0  T
   2     -8.4252591 -0.186989E+02  0.145E+01    1.01       1.0  T
   3     -5.5325043  0.289275E+01  0.168E+01    1.65       1.0  T
   4     -7.9059969 -0.237349E+01  0.109E+01    0.09       1.0  T
   5     -7.7497377  0.156259E+00  0.124E+01    0.69       1.0  T
   6    -10.0018135 -0.225208E+01  0.645E+00    0.33       1.0  T
   7    -10.1796548 -0.177841E+00  0.606E+00    0.43       1.0  T
   8     -9.8996228  0.280032E+00  0.660E+00    0.16       1.0  T
   9    -10.1296905 -0.230068E+00  0.570E+00    0.63       1.0  T
  10     11.7662876  0.218960E+02  0.213E+01    0.55       1.0  T
  11      0.4773977 -0.112889E+02  0.145E+01    0.37       1.0  T
  12    -10.4054558 -0.108829E+02  0.802E+00    0.16       1.0  T
  13     -9.9871428  0.418313E+00  0.885E+00    0.21       1.0  T
  14    -10.3118110 -0.324668E+00  0.834E+00    0.18       1.0  T
  15    -10.3752625 -0.634516E-01  0.817E+00    0.17       1.0  T
  16     -9.7436742  0.631588E+00  0.936E+00    0.25       1.0  T
  17    -11.2827646 -0.153909E+01  0.391E+00    0.17       1.0  T
  18    -10.9530544  0.329710E+00  0.620E+00    0.13       1.0  T
  19     -3.7066288  0.724643E+01  0.124E+01    0.39       1.0  T
  20     -3.2919562  0.414673E+00  0.128E+01    0.41       1.0  T
  21      1.4486685  0.474062E+01  0.163E+01    0.40       1.0  T
  22      1.9062887  0.457620E+00  0.164E+01    0.34       1.0  T
  23      6.3778574  0.447157E+01  0.196E+01    0.31       1.0  T
  24      6.8344676  0.456610E+00  0.199E+01    0.31       1.0  T
  25      6.7677111 -0.667564E-01  0.198E+01    0.30       1.0  T
  26     -0.1797582 -0.694747E+01  0.147E+01    0.32       1.0  T
  27     -1.1082200 -0.928462E+00  0.138E+01    0.33       1.0  T
  28     -2.5768758 -0.146866E+01  0.128E+01    0.35       1.0  T
  29      2.6338028  0.521068E+01  0.168E+01    0.31       1.0  T
  30    -10.5716486 -0.132055E+02  0.759E+00    0.27       1.0  T
  31    -10.3449215  0.226727E+00  0.841E+00    0.30       1.0  T
  32     -9.6827296  0.662192E+00  0.934E+00    0.35       1.0  T
  33    -11.1930220 -0.151029E+01  0.387E+00    0.26       1.0  T
  34    -11.0484517  0.144570E+00  0.388E+00    0.32       1.0  T
  35    -11.0357362  0.127155E-01  0.389E+00    0.33       1.0  T
  36    -10.9839102  0.518260E-01  0.442E+00    0.33       1.0  T
  37    -10.8817960  0.102114E+00  0.443E+00    0.35       1.0  T
  38    -10.8348641  0.469319E-01  0.435E+00    0.36       1.0  T
  39    -10.7010143  0.133850E+00  0.419E+00    0.38       1.0  T
  40    -10.6813248  0.196895E-01  0.408E+00    0.38       1.0  T
  41    -10.4589141  0.222411E+00  0.393E+00    0.37       1.0  T
  42    -10.2775684  0.181346E+00  0.456E+00    0.35       1.0  T
  43    -10.3053084 -0.277400E-01  0.449E+00    0.36       1.0  T
  44    -10.2862200  0.190884E-01  0.448E+00    0.36       1.0  T
  45    -10.2484866  0.377335E-01  0.477E+00    0.32       1.0  T
  46    -10.2008775  0.476091E-01  0.496E+00    0.32       1.0  T
  47    -10.1556290  0.452485E-01  0.500E+00    0.30       1.0  T
  48    -10.1792391 -0.236101E-01  0.484E+00    0.33       1.0  T
  49    -10.2041002 -0.248611E-01  0.492E+00    0.30       1.0  T
  50    -10.1872711  0.168291E-01  0.509E+00    0.29       1.0  T
  51    -10.2260925 -0.388214E-01  0.536E+00    0.27       1.0  T
  52    -10.2855851 -0.594926E-01  0.533E+00    0.28       1.0  T
  53    -10.3299552 -0.443701E-01  0.529E+00    0.28       1.0  T
  54    -10.3319961 -0.204092E-02  0.528E+00    0.28       1.0  T
  55    -10.3539300 -0.219339E-01  0.519E+00    0.28       1.0  T
  56    -10.3685285 -0.145985E-01  0.512E+00    0.28       1.0  T
  57    -10.3947232 -0.261947E-01  0.504E+00    0.28       1.0  T
  58    -10.4303833 -0.356601E-01  0.494E+00    0.28       1.0  T
  59    -10.4788626 -0.484793E-01  0.478E+00    0.28       1.0  T
  60    -10.5890042 -0.110142E+00  0.443E+00    0.28       1.0  T
  61    -10.6355741 -0.465699E-01  0.425E+00    0.28       1.0  T
  62    -10.7135575 -0.779834E-01  0.398E+00    0.28       1.0  T
  63    -10.7413560 -0.277985E-01  0.385E+00    0.28       1.0  T
  64    -11.0186757 -0.277320E+00  0.317E+00    0.27       1.0  T
  65    -11.0087484  0.992727E-02  0.305E+00    0.28       1.0  T
  66    -11.1285953 -0.119847E+00  0.280E+00    0.27       1.0  T
  67    -11.1313704 -0.277512E-02  0.277E+00    0.27       1.0  T
  68    -11.1081952  0.231752E-01  0.264E+00    0.28       1.0  T
  69    -11.0610079  0.471872E-01  0.265E+00    0.29       1.0  T
  70    -11.0947068 -0.336988E-01  0.254E+00    0.29       1.0  T
  71    -11.0777601  0.169467E-01  0.253E+00    0.29       1.0  T
  72    -11.0887703 -0.110102E-01  0.246E+00    0.29       1.0  T
  73    -11.1899977 -0.101227E+00  0.230E+00    0.27       1.0  T
  74    -11.2034263 -0.134285E-01  0.227E+00    0.27       1.0  T
  75    -11.2476640 -0.442377E-01  0.209E+00    0.27       1.0  T
  76    -11.2688232 -0.211592E-01  0.199E+00    0.27       1.0  T
  77    -11.2811142 -0.122910E-01  0.184E+00    0.27       1.0  T
  78    -11.2891944 -0.808029E-02  0.164E+00    0.27       1.0  T
  79    -11.3138282 -0.246338E-01  0.143E+00    0.26       1.0  T
  80    -11.3185343 -0.470609E-02  0.128E+00    0.26       1.0  T
  81    -11.3068117  0.117227E-01  0.128E+00    0.27       1.0  T
  82    -11.2893083  0.175033E-01  0.132E+00    0.28       1.0  T
  83    -11.3029732 -0.136649E-01  0.116E+00    0.28       1.0  T
  84    -11.2907986  0.121746E-01  0.122E+00    0.28       1.0  T
  85    -11.2951583 -0.435977E-02  0.113E+00    0.28       1.0  T
  86    -11.3044341 -0.927577E-02  0.933E-01    0.28       1.0  T
  87    -11.3151715 -0.107374E-01  0.677E-01    0.28       1.0  T
  88    -11.3187772 -0.360562E-02  0.535E-01    0.27       1.0  T
  89    -11.3179866  0.790516E-03  0.506E-01    0.28       1.0  T
  90    -11.3155491  0.243753E-02  0.520E-01    0.28       1.0  T
  91    -11.3181929 -0.264383E-02  0.401E-01    0.28       1.0  T
  92    -11.3200082 -0.181524E-02  0.271E-01    0.28       1.0  T
  93    -11.3203999 -0.391743E-03  0.208E-01    0.28       1.0  T
  94    -11.3204905 -0.905349E-04  0.168E-01    0.28       1.0  T
  95    -11.3206495 -0.158990E-03  0.113E-01    0.28       1.0  T
  96    -11.3206797 -0.302542E-04  0.694E-02    0.28       1.0  T
  97    -11.3206672  0.124803E-04  0.564E-02    0.28       1.0  T
  98    -11.3206819 -0.146380E-04  0.471E-02    0.28       1.0  T
  99    -11.3206462  0.356553E-04  0.548E-02    0.28       1.0  T
 100    -11.3206125  0.336871E-04  0.593E-02    0.28       1.0  T
 101    -11.3206837 -0.711517E-04  0.318E-02    0.28       1.0  T
 102    -11.3206999 -0.162130E-04  0.238E-02    0.28       1.3  T
 103    -11.3206979  0.198542E-05  0.200E-02    0.28       1.5  T
 104    -11.3206988 -0.895025E-06  0.170E-02    0.28       1.8  T
 105    -11.3207015 -0.271659E-05  0.219E-02    0.28       1.4  T
 106    -11.3207016 -0.381752E-07  0.210E-02    0.28       1.4  T
 107    -11.3206993  0.229465E-05  0.127E-02    0.28       2.4  T
 108    -11.3206997 -0.471421E-06  0.104E-02    0.28       2.9  T
 109    -11.3207023 -0.254910E-05  0.889E-03    0.28       3.4  T
 110    -11.3207023 -0.457784E-07  0.646E-03    0.28       4.7  T
 111    -11.3207024 -0.100965E-06  0.401E-03    0.28       7.5  T
 112    -11.3207024 -0.211790E-07  0.236E-03    0.28      12.7  T
 113    -11.3207020  0.426516E-06  0.433E-03    0.28       7.0  T
 114    -11.3207024 -0.413182E-06  0.123E-03    0.28      24.5  T
 115    -11.3207025 -0.188611E-07  0.640E-04    0.28      47.1  T
 116    -11.3207024  0.302688E-07  0.119E-03    0.28      25.3  T
 117    -11.3207024 -0.243561E-07  0.716E-04    0.28      42.1  T

   *** convergence criteria satisfied after 117 iterations ***

         #    Occupation            Energy/Eh            Energy/eV
      -------------------------------------------------------------
         1        2.0000           -0.6164470             -16.7744
       ...           ...                  ...                  ...
         6        2.0000           -0.4817298             -13.1085
         7        2.0000           -0.3992189             -10.8633
         8        2.0000           -0.3744407             -10.1890
         9        2.0000           -0.3580837              -9.7440
        10        2.0000           -0.3509357              -9.5494
        11        2.0000           -0.3428975              -9.3307
        12        1.9906           -0.3195341              -8.6950 (HOMO)
        13        0.0094           -0.3093595              -8.4181 (LUMO)
        14                         -0.2940486              -8.0015
        15                         -0.2869178              -7.8074
        16                         -0.2786172              -7.5816
        17                         -0.2563946              -6.9769
       ...                                ...                  ...
        26                          0.7483059              20.3624
      -------------------------------------------------------------
                  HL-Gap            0.0101746 Eh            0.2769 eV
             Fermi-level           -0.3144468 Eh           -8.5565 eV

 SCC (total)                   0 d,  0 h,  0 min,  0.033 sec
 SCC setup                      ...        0 min,  0.000 sec (  0.245%)
 Dispersion                     ...        0 min,  0.000 sec (  0.786%)
 classical contributions        ...        0 min,  0.000 sec (  0.187%)
 integral evaluation            ...        0 min,  0.000 sec (  0.659%)
 iterations                     ...        0 min,  0.031 sec ( 96.376%)
 molecular gradient             ...        0 min,  0.001 sec (  1.592%)
 printout                       ...        0 min,  0.000 sec (  0.098%)

         :::::::::::::::::::::::::::::::::::::::::::::::::::::
         ::                     SUMMARY                     ::
         :::::::::::::::::::::::::::::::::::::::::::::::::::::
         :: total energy             -11.234971980032 Eh    ::
         :: gradient norm              0.280173112947 Eh/a0 ::
         :: HOMO-LUMO gap              0.276864713631 eV    ::
         ::.................................................::
         :: SCC energy               -11.320702444683 Eh    ::
         :: -> isotropic ES           -0.082594259149 Eh    ::
         :: -> anisotropic ES          0.006900995501 Eh    ::
         :: -> anisotropic XC         -0.000664419724 Eh    ::
         :: -> dispersion             -0.008530872656 Eh    ::
         :: repulsion energy           0.085723926290 Eh    ::
         :: add. restraining           0.000000000000 Eh    ::
         :: total charge              -0.000000000949 e     ::
         :::::::::::::::::::::::::::::::::::::::::::::::::::::

      ----------------------------------------------------------- 
     |                   =====================                   |
     |                        A N C O P T                        |
     |                   =====================                   |
     |               Approximate Normal Coordinate               |
     |                Rational Function Optimizer                |
      ----------------------------------------------------------- 

          ...................................................
          :                      SETUP                      :
          :.................................................:
          :   optimization level            normal          :
          :   max. optcycles                   200          :
          :   ANC micro-cycles                  20          :
          :   degrees of freedom                27          :
          :.................................................:
          :   RF solver                   davidson          :
          :   write xtbopt.log                true          :
          :   linear?                        false          :
          :   energy convergence         0.5000000E-05 Eh   :
          :   grad. convergence          0.1000000E-02 Eh/α :
          :   maximium RF displ.         1.0000000          :
          :   Hlow (freq-cutoff)         0.1000000E-01      :
          :   Hmax (freq-cutoff)         5.0000000          :
          :   S6 in model hess.         20.0000000          :
          ...................................................

generating ANC from model Hessian ...
Using Lindh-Hessian (1995)
 Shifting diagonal of input Hessian by    1.5430587193009358E-002
 Lowest  eigenvalues of input Hessian
    0.010000    0.014926    0.015236    0.000000    0.000000    0.000000
    0.000000    0.000000    0.000000    0.015560    0.015798    0.016448
    0.016734    0.017164    0.017804    0.018380    0.019014    0.019231
 Highest eigenvalues
    0.236194    0.257938    0.272560    0.326553    0.382233    0.416294


........................................................................
.............................. CYCLE    1 ..............................
........................................................................
   1    -11.3207025 -0.113207E+02  0.257E-04    0.28       0.0  T
   2    -11.3207024  0.165761E-07  0.879E-04    0.28      34.3  T
   3    -11.3207024  0.146141E-07  0.134E-03    0.28      22.4  T
   4    -11.3207024 -0.242558E-07  0.616E-04    0.28      48.9  T
     SCC iter.                  ...        0 min,  0.001 sec
     gradient                   ...        0 min,  0.000 sec
 * total energy  :   -11.2349720 Eh     change       -0.2029665E-09 Eh
   gradient norm :     0.2801379 Eh/α   predicted     0.0000000E+00 (-100.00%)
   displ. norm   :     0.7558841 α      lambda       -0.2063644E+00
   maximum displ.:     0.4982002 α      in ANC's #21, #19, #17, ...

........................................................................
.............................. CYCLE    2 ..............................
........................................................................
   1    -11.4829461 -0.114829E+02  0.188E+00    0.37       0.0  T
   2    -10.0394186  0.144353E+01  0.738E+00    0.56       1.0  T
   3    -11.4941616 -0.145474E+01  0.132E+00    0.29       1.0  T
   4    -10.8448393  0.649322E+00  0.566E+00    0.37       1.0  T
   5    -10.4570705  0.387769E+00  0.653E+00    0.43       1.0  T
   6     -9.9969060  0.460164E+00  0.720E+00    0.55       1.0  T
   7    -10.9473583 -0.950452E+00  0.490E+00    0.31       1.0  T
   8    -11.4313300 -0.483972E+00  0.150E+00    0.25       1.0  T
   9    -11.5006975 -0.693675E-01  0.448E-01    0.26       1.0  T
  10    -11.4983935  0.230393E-02  0.574E-01    0.28       1.0  T
  11    -11.5011041 -0.271054E-02  0.366E-01    0.27       1.0  T
  12    -11.4931750  0.792911E-02  0.646E-01    0.28       1.0  T
  13    -11.4953651 -0.219014E-02  0.535E-01    0.28       1.0  T
  14    -11.5013703 -0.600519E-02  0.931E-02    0.27       1.0  T
  15    -11.5009688  0.401543E-03  0.185E-01    0.27       1.0  T
  16    -11.5013381 -0.369379E-03  0.118E-01    0.26       1.0  T
  17    -11.5014483 -0.110137E-03  0.619E-02    0.26       1.0  T
  18    -11.5014537 -0.542504E-05  0.525E-02    0.26       1.0  T
  19    -11.5014562 -0.254211E-05  0.471E-02    0.26       1.0  T
  20    -11.5014587 -0.249542E-05  0.367E-02    0.26       1.0  T
  21    -11.5014677 -0.899707E-05  0.224E-02    0.26       1.3  T
  22    -11.5014724 -0.468109E-05  0.100E-02    0.26       3.0  T
  23    -11.5014727 -0.275773E-06  0.682E-03    0.26       4.4  T
  24    -11.5014728 -0.620588E-07  0.388E-03    0.26       7.8  T
  25    -11.5014728 -0.645909E-07  0.192E-03    0.26      15.7  T
  26    -11.5014729 -0.249004E-07  0.106E-03    0.26      28.4  T
  27    -11.5014729 -0.105568E-07  0.288E-04    0.26     104.8  T
  28    -11.5014729 -0.668329E-09  0.289E-05    0.26    1041.6  T
     SCC iter.                  ...        0 min,  0.005 sec
     gradient                   ...        0 min,  0.000 sec
 * total energy  :   -11.4306364 Eh     change       -0.1956644E+00 Eh
   gradient norm :     0.2744300 Eh/α   predicted    -0.1621364E+00 ( -17.14%)
   displ. norm   :     0.9798873 α      lambda       -0.2658657E+00
   maximum displ.:     0.7673389 α      in ANC's #21, #17, #19, ...

........................................................................
.............................. CYCLE    3 ..............................
........................................................................
   1    -11.7705850 -0.117706E+02  0.339E+00    0.43       0.0  T
   2     -8.1753047  0.359528E+01  0.111E+01    1.03       1.0  T
   3    -11.4543123 -0.327901E+01  0.397E+00    0.80       1.0  T
   4    -11.0220756  0.432237E+00  0.629E+00    0.44       1.0  T
   5    -11.5840628 -0.561987E+00  0.376E+00    0.33       1.0  T
   6    -10.9596724  0.624390E+00  0.633E+00    0.39       1.0  T
   7    -11.7309360 -0.771264E+00  0.206E+00    0.23       1.0  T
   8    -11.4637076  0.267228E+00  0.378E+00    0.30       1.0  T
   9    -11.5471898 -0.834822E-01  0.325E+00    0.27       1.0  T
  10    -11.5939776 -0.467878E-01  0.281E+00    0.25       1.0  T
  11    -11.8064295 -0.212452E+00  0.234E+00    0.27       1.0  T
  12    -11.7463597  0.600698E-01  0.285E+00    0.33       1.0  T
  13    -11.7759706 -0.296108E-01  0.239E+00    0.32       1.0  T
  14    -11.7800470 -0.407638E-02  0.223E+00    0.32       1.0  T
  15    -11.8273862 -0.473393E-01  0.734E-01    0.30       1.0  T
  16    -11.8288991 -0.151283E-02  0.483E-01    0.30       1.0  T
  17    -11.8290065 -0.107486E-03  0.354E-01    0.29       1.0  T
  18    -11.8294159 -0.409388E-03  0.220E-01    0.29       1.0  T
  19    -11.8295890 -0.173029E-03  0.196E-01    0.28       1.0  T
  20    -11.8295822  0.674839E-05  0.778E-02    0.28       1.0  T
  21    -11.8296252 -0.429506E-04  0.777E-02    0.28       1.0  T
  22    -11.8296254 -0.245093E-06  0.566E-02    0.28       1.0  T
  23    -11.8296313 -0.584731E-05  0.288E-02    0.28       1.0  T
  24    -11.8296302  0.101066E-05  0.193E-02    0.28       1.6  T
  25    -11.8296314 -0.112603E-05  0.993E-03    0.28       3.0  T
  26    -11.8296323 -0.974272E-06  0.202E-03    0.28      14.9  T
  27    -11.8296324 -0.107465E-07  0.103E-03    0.28      29.2  T
  28    -11.8296324 -0.453844E-08  0.103E-03    0.28      29.4  T
  29    -11.8296324 -0.109602E-07  0.302E-04    0.28      99.9  T
  30    -11.8296324 -0.790585E-09  0.488E-05    0.28     618.0  T
     SCC iter.                  ...        0 min,  0.005 sec
     gradient                   ...        0 min,  0.000 sec
 * total energy  :   -11.6517665 Eh     change       -0.2211301E+00 Eh
   gradient norm :     0.1293651 Eh/α   predicted    -0.2605721E+00 (  17.84%)
   displ. norm   :     0.7389066 α      lambda       -0.8903032E-01
   maximum displ.:     0.4722676 α      in ANC's #17, #21, #9, ...

........................................................................
.............................. CYCLE    4 ..............................
........................................................................
   1    -11.8762213 -0.118762E+02  0.470E+00    0.86       0.0  T
   2      1.4826509  0.133589E+02  0.190E+01    0.51       1.0  T
   3    -11.1835608 -0.126662E+02  0.736E+00    0.09       1.0  T
   4    -11.9030129 -0.719452E+00  0.334E+00    0.86       1.0  T
   5    -11.8661831  0.368298E-01  0.342E+00    0.24       1.0  T
   6    -11.8782668 -0.120837E-01  0.249E+00    0.94       1.0  T
   7    -11.9984649 -0.120198E+00  0.201E+00    0.43       1.0  T
   8    -11.9815463  0.169186E-01  0.197E+00    0.52       1.0  T
   9    -11.9928502 -0.113039E-01  0.182E+00    0.48       1.0  T
  10    -11.9918495  0.100072E-02  0.149E+00    0.51       1.0  T
  11    -11.9962585 -0.440900E-02  0.141E+00    0.49       1.0  T
  12    -12.0100828 -0.138243E-01  0.964E-01    0.45       1.0  T
  13    -11.9971674  0.129153E-01  0.133E+00    0.49       1.0  T
  14    -12.0245087 -0.273413E-01  0.533E-01    0.40       1.0  T
  15    -12.0263027 -0.179399E-02  0.467E-01    0.39       1.0  T
  16    -12.0293963 -0.309361E-02  0.343E-01    0.37       1.0  T
  17    -12.0304691 -0.107286E-02  0.253E-01    0.36       1.0  T
  18    -12.0305800 -0.110873E-03  0.210E-01    0.36       1.0  T
  19    -12.0306808 -0.100816E-03  0.181E-01    0.35       1.0  T
  20    -12.0306768  0.401092E-05  0.142E-01    0.35       1.0  T
  21    -12.0307220 -0.452119E-04  0.109E-01    0.35       1.0  T
  22    -12.0307603 -0.382346E-04  0.600E-02    0.35       1.0  T
  23    -12.0307814 -0.211369E-04  0.158E-02    0.35       1.9  T
  24    -12.0307833 -0.185531E-05  0.117E-03    0.34      25.7  T
  25    -12.0307833 -0.385446E-09  0.620E-04    0.34      48.7  T
  26    -12.0307833 -0.313173E-09  0.127E-04    0.34     237.8  T
     SCC iter.                  ...        0 min,  0.004 sec
     gradient                   ...        0 min,  0.000 sec
 * total energy  :   -11.6726634 Eh     change       -0.2089695E-01 Eh
   gradient norm :     0.3880953 Eh/α   predicted    -0.6881968E-01 ( 229.33%)
   displ. norm   :     0.5311813 α      lambda       -0.1324307E+00
   maximum displ.:     0.3292681 α      in ANC's #17, #9, #24, ...

........................................................................
.............................. CYCLE    5 ..............................
........................................................................
   1    -11.9647416 -0.119647E+02  0.215E+00    0.58       0.0  T
   2     -9.3452164  0.261953E+01  0.105E+01    0.53       1.0  T
   3    -11.9778040 -0.263259E+01  0.184E+00    0.24       1.0  T
   4    -11.9747169  0.308708E-02  0.119E+00    0.44       1.0  T
   5    -11.9270681  0.476488E-01  0.139E+00    0.55       1.0  T
   6    -11.9761495 -0.490814E-01  0.765E-01    0.21       1.0  T
   7    -11.9827114 -0.656188E-02  0.526E-01    0.26       1.0  T
   8    -11.9803716  0.233976E-02  0.549E-01    0.25       1.0  T
   9    -11.9822896 -0.191802E-02  0.368E-01    0.26       1.0  T
  10    -11.9846892 -0.239959E-02  0.647E-02    0.32       1.0  T
  11    -11.9846821  0.715425E-05  0.598E-02    0.32       1.0  T
  12    -11.9846531  0.289264E-04  0.543E-02    0.33       1.0  T
  13    -11.9846822 -0.290398E-04  0.466E-02    0.33       1.0  T
  14    -11.9846866 -0.444158E-05  0.433E-02    0.33       1.0  T
  15    -11.9846935 -0.689556E-05  0.390E-02    0.32       1.0  T
  16    -11.9846988 -0.525108E-05  0.333E-02    0.32       1.0  T
  17    -11.9847028 -0.406814E-05  0.269E-02    0.32       1.1  T
  18    -11.9847071 -0.426904E-05  0.174E-02    0.32       1.7  T
  19    -11.9847090 -0.192041E-05  0.101E-02    0.32       3.0  T
  20    -11.9847100 -0.937897E-06  0.180E-03    0.32      16.7  T
  21    -11.9847100 -0.291503E-07  0.666E-04    0.32      45.2  T
  22    -11.9847100 -0.471658E-08  0.928E-05    0.32     324.8  T
     SCC iter.                  ...        0 min,  0.004 sec
     gradient                   ...        0 min,  0.000 sec
 * total energy  :   -11.6969090 Eh     change       -0.2424558E-01 Eh
   gradient norm :     0.2362259 Eh/α   predicted    -0.8489822E-01 ( 250.16%)
   displ. norm   :     0.7582166 α      lambda       -0.1297357E+00
   maximum displ.:     0.5256757 α      in ANC's #17, #7, #12, ...

........................................................................
.............................. CYCLE    6 ..............................
........................................................................
   1    -11.6262737 -0.116263E+02  0.625E+00    0.06       0.0  T
   2    -10.6276018  0.998672E+00  0.751E+00    1.94       1.0  T
   3    -10.7432334 -0.115632E+00  0.863E+00    0.21       1.0  T
   4    -11.0315893 -0.288356E+00  0.769E+00    0.11       1.0  T
   5     -8.0791841  0.295241E+01  0.950E+00    0.20       1.0  T
   6    -11.4441860 -0.336500E+01  0.414E+00    1.50       1.0  T
   7    -11.6042347 -0.160049E+00  0.385E+00    0.99       1.0  T
   8    -11.5550662  0.491685E-01  0.378E+00    1.16       1.0  T
   9    -11.5701527 -0.150865E-01  0.357E+00    1.13       1.0  T
  10    -11.7949842 -0.224832E+00  0.252E+00    0.47       1.0  T
  11    -11.7956056 -0.621434E-03  0.244E+00    0.47       1.0  T
  12    -11.7949607  0.644972E-03  0.246E+00    0.47       1.0  T
  13    -11.8914336 -0.964730E-01  0.171E+00    0.24       1.0  T
  14    -11.9061364 -0.147028E-01  0.175E+00    0.20       1.0  T
  15    -11.9051732  0.963171E-03  0.177E+00    0.20       1.0  T
  16    -11.9073296 -0.215637E-02  0.161E+00    0.20       1.0  T
  17    -11.9105943 -0.326469E-02  0.124E+00    0.19       1.0  T
  18    -11.9069534  0.364090E-02  0.104E+00    0.21       1.0  T
  19    -11.9102331 -0.327969E-02  0.643E-01    0.20       1.0  T
  20    -11.9107151 -0.482011E-03  0.349E-01    0.21       1.0  T
  21    -11.9112764 -0.561353E-03  0.202E-01    0.20       1.0  T
  22    -11.9114699 -0.193472E-03  0.151E-01    0.20       1.0  T
  23    -11.9115456 -0.757449E-04  0.137E-01    0.20       1.0  T
  24    -11.9115299  0.157338E-04  0.970E-02    0.19       1.0  T
  25    -11.9115660 -0.361189E-04  0.611E-02    0.20       1.0  T
  26    -11.9115694 -0.333941E-05  0.417E-02    0.20       1.0  T
  27    -11.9115730 -0.364669E-05  0.101E-02    0.20       3.0  T
  28    -11.9115735 -0.493800E-06  0.632E-03    0.20       4.8  T
  29    -11.9115735 -0.302298E-07  0.173E-03    0.20      17.4  T
  30    -11.9115736 -0.308686E-07  0.249E-03    0.20      12.1  T
  31    -11.9115736 -0.307630E-08  0.133E-03    0.20      22.6  T
  32    -11.9115736 -0.168775E-07  0.104E-04    0.20     291.0  T
  33    -11.9115736 -0.932232E-11  0.662E-05    0.20     455.4  T
     SCC iter.                  ...        0 min,  0.005 sec
     gradient                   ...        0 min,  0.000 sec
 * total energy  :   -11.6986387 Eh     change       -0.1729665E-02 Eh
   gradient norm :     0.2130647 Eh/α   predicted    -0.1021599E+00 (5806.34%)
   displ. norm   :     0.5273051 α      lambda       -0.7979916E-01
   maximum displ.:     0.2203197 α      in ANC's #9, #7, #22, ...

........................................................................
.............................. CYCLE    7 ..............................
........................................................................
   1    -11.9375891 -0.119376E+02  0.323E+00    0.62       0.0  T
   2    -10.0183209  0.191927E+01  0.960E+00    0.22       1.0  T
   3    -11.7423160 -0.172400E+01  0.342E+00    1.19       1.0  T
   4    -10.6412616  0.110105E+01  0.689E+00    0.14       1.0  T
   5    -11.8065285 -0.116527E+01  0.275E+00    0.44       1.0  T
   6    -11.8823024 -0.757739E-01  0.186E+00    0.81       1.0  T
   7    -11.9460749 -0.637725E-01  0.123E+00    0.64       1.0  T
   8    -11.9281618  0.179130E-01  0.129E+00    0.76       1.0  T
   9    -11.9332556 -0.509374E-02  0.117E+00    0.74       1.0  T
  10    -11.9333041 -0.485606E-04  0.110E+00    0.74       1.0  T
  11    -11.9503315 -0.170273E-01  0.815E-01    0.64       1.0  T
  12    -11.9534274 -0.309592E-02  0.676E-01    0.62       1.0  T
  13    -11.9560284 -0.260097E-02  0.525E-01    0.60       1.0  T
  14    -11.9580518 -0.202348E-02  0.370E-01    0.59       1.0  T
  15    -11.9591107 -0.105885E-02  0.236E-01    0.58       1.0  T
  16    -11.9596056 -0.494882E-03  0.142E-01    0.57       1.0  T
  17    -11.9598788 -0.273254E-03  0.460E-02    0.56       1.0  T
  18    -11.9599073 -0.284396E-04  0.172E-02    0.56       1.8  T
  19    -11.9599120 -0.475646E-05  0.119E-03    0.56      25.3  T
  20    -11.9599118  0.270303E-06  0.424E-03    0.56       7.1  T
  21    -11.9599120 -0.242638E-06  0.155E-03    0.56      19.5  T
  22    -11.9599120 -0.367583E-07  0.640E-04    0.56      47.1  T
  23    -11.9599120 -0.590726E-08  0.466E-05    0.56     647.5  T
     SCC iter.                  ...        0 min,  0.005 sec
     gradient                   ...        0 min,  0.001 sec
 * total energy  :   -11.7447408 Eh     change       -0.4610214E-01 Eh
   gradient norm :     0.1502004 Eh/α   predicted    -0.5099368E-01 (  10.61%)
   displ. norm   :     0.7648313 α      lambda       -0.8748182E-01
   maximum displ.:     0.3794163 α      in ANC's #17, #21, #6, ...

........................................................................
.............................. CYCLE    8 ..............................
........................................................................
   1    -12.1421276 -0.121421E+02  0.226E+00    1.29       0.0  T
   2     -9.4635379  0.267859E+01  0.104E+01    0.73       1.0  T
   3    -12.1527491 -0.268921E+01  0.154E+00    1.05       1.0  T
   4    -12.1374806  0.152684E-01  0.143E+00    0.86       1.0  T
   5    -12.0865272  0.509535E-01  0.142E+00    1.45       1.0  T
   6    -12.1678497 -0.813225E-01  0.508E-01    0.87       1.0  T
   7    -12.1648276  0.302213E-02  0.541E-01    0.94       1.0  T
   8    -12.1696555 -0.482791E-02  0.414E-01    0.86       1.0  T
   9    -12.1694444  0.211028E-03  0.388E-01    0.87       1.0  T
  10    -12.1696617 -0.217285E-03  0.367E-01    0.87       1.0  T
  11    -12.1698917 -0.229952E-03  0.334E-01    0.86       1.0  T
  12    -12.1703074 -0.415735E-03  0.291E-01    0.86       1.0  T
  13    -12.1706991 -0.391692E-03  0.233E-01    0.85       1.0  T
  14    -12.1711366 -0.437496E-03  0.151E-01    0.84       1.0  T
  15    -12.1714120 -0.275412E-03  0.547E-02    0.83       1.0  T
  16    -12.1714450 -0.329772E-04  0.240E-02    0.82       1.3  T
  17    -12.1714529 -0.787506E-05  0.345E-03    0.82       8.7  T
  18    -12.1714531 -0.179989E-06  0.628E-04    0.82      48.0  T
  19    -12.1714530  0.874478E-08  0.104E-03    0.82      29.1  T
  20    -12.1714531 -0.136246E-07  0.185E-04    0.82     163.0  T
     SCC iter.                  ...        0 min,  0.003 sec
     gradient                   ...        0 min,  0.001 sec
 * total energy  :   -11.7432673 Eh     change        0.1473480E-02 Eh
   gradient norm :     0.4913924 Eh/α   predicted    -0.6932789E-01 (*******%)
   displ. norm   :     0.4304419 α      lambda       -0.1457560E+00
   maximum displ.:     0.1908926 α      in ANC's #21, #22, #24, ...

........................................................................
.............................. CYCLE    9 ..............................
........................................................................
   1    -12.0903093 -0.120903E+02  0.250E+00    0.90       0.0  T
   2    -11.7131615  0.377148E+00  0.338E+00    2.36       1.0  T
   3    -10.8809939  0.832168E+00  0.686E+00    0.48       1.0  T
   4    -10.9000966 -0.191028E-01  0.681E+00    0.48       1.0  T
   5    -11.0836230 -0.183526E+00  0.594E+00    0.46       1.0  T
   6    -12.0410247 -0.957402E+00  0.171E+00    0.74       1.0  T
   7    -12.1224644 -0.814397E-01  0.108E+00    1.12       1.0  T
   8    -12.1259007 -0.343631E-02  0.874E-01    1.07       1.0  T
   9    -12.1239245  0.197626E-02  0.787E-01    1.11       1.0  T
  10    -12.1263552 -0.243076E-02  0.523E-01    1.09       1.0  T
  11    -12.1273164 -0.961210E-03  0.500E-01    1.07       1.0  T
  12    -12.1263958  0.920659E-03  0.449E-01    1.10       1.0  T
  13    -12.1267324 -0.336574E-03  0.400E-01    1.09       1.0  T
  14    -12.1272484 -0.515990E-03  0.301E-01    1.09       1.0  T
  15    -12.1278361 -0.587706E-03  0.209E-01    1.08       1.0  T
  16    -12.1281694 -0.333338E-03  0.143E-01    1.07       1.0  T
  17    -12.1283207 -0.151321E-03  0.101E-01    1.06       1.0  T
  18    -12.1283860 -0.652651E-04  0.732E-02    1.06       1.0  T
  19    -12.1284306 -0.446493E-04  0.464E-02    1.06       1.0  T
  20    -12.1284576 -0.270056E-04  0.149E-02    1.05       2.0  T
  21    -12.1284605 -0.284433E-05  0.107E-03    1.05      28.2  T
  22    -12.1284604  0.599501E-07  0.210E-03    1.05      14.4  T
  23    -12.1284605 -0.600539E-07  0.280E-04    1.05     107.9  T
  24    -12.1284605 -0.708582E-09  0.103E-04    1.05     292.8  T
     SCC iter.                  ...        0 min,  0.004 sec
     gradient                   ...        0 min,  0.001 sec
 * total energy  :   -11.7797001 Eh     change       -0.3643273E-01 Eh
   gradient norm :     0.2522090 Eh/α   predicted    -0.8638084E-01 ( 137.10%)
   displ. norm   :     0.6677199 α      lambda       -0.1068909E+00
   maximum displ.:     0.3206119 α      in ANC's #7, #12, #21, ...

........................................................................
.............................. CYCLE   10 ..............................
........................................................................
   1    -11.9452962 -0.119453E+02  0.238E+00    1.00       0.0  T
   2    -11.8861175  0.591787E-01  0.346E+00    0.71       1.0  T
   3    -11.9677456 -0.816281E-01  0.164E+00    0.92       1.0  T
   4    -11.9484083  0.193372E-01  0.128E+00    0.95       1.0  T
   5    -11.9693841 -0.209758E-01  0.449E-01    0.89       1.0  T
   6    -11.9679643  0.141984E-02  0.398E-01    1.07       1.0  T
   7    -11.9695329 -0.156862E-02  0.380E-01    0.89       1.0  T
   8    -11.9710158 -0.148286E-02  0.252E-01    0.98       1.0  T
   9    -11.9721733 -0.115751E-02  0.346E-02    0.97       1.0  T
  10    -11.9721795 -0.621451E-05  0.278E-02    0.97       1.1  T
  11    -11.9722045 -0.250412E-04  0.608E-03    0.96       5.0  T
  12    -11.9722054 -0.838965E-06  0.254E-03    0.96      11.9  T
  13    -11.9722055 -0.107287E-06  0.126E-03    0.96      24.0  T
  14    -11.9722055 -0.310481E-07  0.203E-04    0.96     148.7  T
  15    -11.9722055 -0.123324E-08  0.477E-05    0.96     632.0  T
     SCC iter.                  ...        0 min,  0.002 sec
     gradient                   ...        0 min,  0.001 sec
 * total energy  :   -11.7674581 Eh     change        0.1224194E-01 Eh
   gradient norm :     0.1806259 Eh/α   predicted    -0.7727405E-01 (-731.22%)
   displ. norm   :     0.5218714 α      lambda       -0.6980499E-01
   maximum displ.:     0.2218576 α      in ANC's #14, #11, #13, ...

........................................................................
.............................. CYCLE   11 ..............................
........................................................................
   1    -12.0704855 -0.120705E+02  0.184E+00    1.07       0.0  T
   2    -11.7201265  0.350359E+00  0.395E+00    0.34       1.0  T
   3    -12.0384706 -0.318344E+00  0.141E+00    1.32       1.0  T
   4    -11.2234645  0.815006E+00  0.534E+00    0.24       1.0  T
   5    -11.7143664 -0.490902E+00  0.335E+00    0.29       1.0  T
   6    -12.0348884 -0.320522E+00  0.120E+00    0.67       1.0  T
   7    -12.0790990 -0.442106E-01  0.597E-01    0.93       1.0  T
   8    -12.0787730  0.326045E-03  0.576E-01    0.96       1.0  T
   9    -12.0784561  0.316878E-03  0.507E-01    0.98       1.0  T
  10    -12.0795534 -0.109730E-02  0.343E-01    0.96       1.0  T
  11    -12.0795202  0.332078E-04  0.315E-01    0.97       1.0  T
  12    -12.0808006 -0.128043E-02  0.907E-02    0.93       1.0  T
  13    -12.0808574 -0.568323E-04  0.682E-02    0.93       1.0  T
  14    -12.0809318 -0.744058E-04  0.134E-02    0.92       2.3  T
  15    -12.0809341 -0.225132E-05  0.316E-03    0.91       9.5  T
  16    -12.0809341 -0.636054E-08  0.194E-03    0.91      15.6  T
  17    -12.0809341 -0.137357E-07  0.728E-04    0.91      41.4  T
  18    -12.0809341  0.536087E-08  0.831E-04    0.91      36.3  T
     SCC iter.                  ...        0 min,  0.003 sec
     gradient                   ...        0 min,  0.000 sec
 * total energy  :   -11.8130086 Eh     change       -0.4555048E-01 Eh
   gradient norm :     0.0903216 Eh/α   predicted    -0.4440821E-01 (  -2.51%)
   displ. norm   :     0.6804337 α      lambda       -0.4636507E-01
   maximum displ.:     0.4536750 α      in ANC's #21, #7, #27, ...

........................................................................
.............................. CYCLE   12 ..............................
........................................................................
   1    -12.1698217 -0.121698E+02  0.219E+00    1.31       0.0  T
   2    -12.0727518  0.970699E-01  0.197E+00    2.21       1.0  T
   3    -10.7056803  0.136707E+01  0.721E+00    0.46       1.0  T
   4    -11.9478718 -0.124219E+01  0.288E+00    0.73       1.0  T
   5    -12.1563089 -0.208437E+00  0.843E-01    1.20       1.0  T
   6    -12.1757132 -0.194043E-01  0.474E-01    1.52       1.0  T
   7    -12.1795576 -0.384445E-02  0.293E-01    1.49       1.0  T
   8    -12.1793158  0.241840E-03  0.290E-01    1.50       1.0  T
   9    -12.1793341 -0.183520E-04  0.212E-01    1.51       1.0  T
  10    -12.1791932  0.140948E-03  0.203E-01    1.52       1.0  T
  11    -12.1792563 -0.631461E-04  0.176E-01    1.52       1.0  T
  12    -12.1792826 -0.262645E-04  0.171E-01    1.52       1.0  T
  13    -12.1795221 -0.239485E-03  0.112E-01    1.51       1.0  T
  14    -12.1795990 -0.769629E-04  0.845E-02    1.50       1.0  T
  15    -12.1796816 -0.825499E-04  0.343E-02    1.50       1.0  T
  16    -12.1796965 -0.149424E-04  0.837E-03    1.49       3.6  T
  17    -12.1796974 -0.842839E-06  0.465E-04    1.49      64.9  T
  18    -12.1796974 -0.399063E-08  0.872E-05    1.49     345.6  T
     SCC iter.                  ...        0 min,  0.003 sec
     gradient                   ...        0 min,  0.000 sec
 * total energy  :   -11.8254840 Eh     change       -0.1247534E-01 Eh
   gradient norm :     0.1482027 Eh/α   predicted    -0.3391584E-01 ( 171.86%)
   displ. norm   :     0.5010008 α      lambda       -0.3089274E-01
   maximum displ.:     0.4075273 α      in ANC's #7, #10, #19, ...

........................................................................
.............................. CYCLE   13 ..............................
........................................................................
   1    -12.1377469 -0.121377E+02  0.142E+00    1.25       0.0  T
   2    -12.1222224  0.155245E-01  0.120E+00    0.97       1.0  T
   3    -12.0296523  0.925701E-01  0.189E+00    2.00       1.0  T
   4    -12.0832547 -0.536024E-01  0.131E+00    0.99       1.0  T
   5    -12.1085940 -0.253393E-01  0.908E-01    1.52       1.0  T
   6    -12.1369070 -0.283130E-01  0.333E-01    1.28       1.0  T
   7    -12.1366059  0.301102E-03  0.319E-01    1.28       1.0  T
   8    -12.1381716 -0.156569E-02  0.236E-01    1.26       1.0  T
   9    -12.1392377 -0.106612E-02  0.264E-02    1.20       1.1  T
  10    -12.1392337  0.400667E-05  0.252E-02    1.20       1.2  T
  11    -12.1392428 -0.905258E-05  0.146E-03    1.21      20.7  T
  12    -12.1392428  0.284119E-07  0.117E-03    1.21      25.9  T
  13    -12.1392428 -0.377238E-07  0.210E-04    1.21     143.3  T
  14    -12.1392428 -0.688717E-09  0.759E-05    1.21     397.3  T
     SCC iter.                  ...        0 min,  0.002 sec
     gradient                   ...        0 min,  0.000 sec
 * total energy  :   -11.8434382 Eh     change       -0.1795423E-01 Eh
   gradient norm :     0.0609647 Eh/α   predicted    -0.1932344E-01 (   7.63%)
   displ. norm   :     0.6616859 α      lambda       -0.2350428E-01
   maximum displ.:     0.3900675 α      in ANC's #7, #12, #9, ...

........................................................................
.............................. CYCLE   14 ..............................
........................................................................
   1    -12.1258560 -0.121259E+02  0.237E+00    0.78       0.0  T
   2    -11.8989152  0.226941E+00  0.286E+00    2.42       1.0  T
   3    -11.0282086  0.870707E+00  0.678E+00    0.48       1.0  T
   4    -11.3988596 -0.370651E+00  0.548E+00    0.48       1.0  T
   5    -12.0731418 -0.674282E+00  0.170E+00    0.61       1.0  T
   6    -12.1249162 -0.517744E-01  0.101E+00    0.89       1.0  T
   7    -12.1166155  0.830066E-02  0.126E+00    1.32       1.0  T
   8    -12.1191412 -0.252565E-02  0.122E+00    1.30       1.0  T
   9    -12.1381705 -0.190294E-01  0.867E-01    1.14       1.0  T
  10    -12.1413847 -0.321420E-02  0.707E-01    1.10       1.0  T
  11    -12.1415833 -0.198582E-03  0.681E-01    1.10       1.0  T
  12    -12.1425081 -0.924760E-03  0.609E-01    1.10       1.0  T
  13    -12.1440280 -0.151996E-02  0.551E-01    1.08       1.0  T
  14    -12.1445996 -0.571549E-03  0.496E-01    1.08       1.0  T
  15    -12.1466453 -0.204568E-02  0.329E-01    1.06       1.0  T
  16    -12.1476884 -0.104314E-02  0.183E-01    1.04       1.0  T
  17    -12.1481429 -0.454522E-03  0.254E-02    1.02       1.2  T
  18    -12.1481437 -0.763924E-06  0.190E-02    1.01       1.6  T
  19    -12.1481479 -0.417532E-05  0.109E-02    1.01       2.8  T
  20    -12.1481496 -0.171936E-05  0.361E-04    1.01      83.6  T
  21    -12.1481496 -0.175154E-08  0.286E-04    1.01     105.5  T
  22    -12.1481496 -0.453323E-09  0.380E-05    1.01     793.5  T
     SCC iter.                  ...        0 min,  0.003 sec
     gradient                   ...        0 min,  0.000 sec
 * total energy  :   -11.8366877 Eh     change        0.6750463E-02 Eh
   gradient norm :     0.1779871 Eh/α   predicted    -0.1689758E-01 (-350.32%)
   displ. norm   :     0.3920598 α      lambda       -0.3776841E-01
   maximum displ.:     0.2266825 α      in ANC's #12, #19, #5, ...

........................................................................
.............................. CYCLE   15 ..............................
........................................................................
   1    -12.1752930 -0.121753E+02  0.126E+00    1.14       0.0  T
   2     -9.3739762  0.280132E+01  0.104E+01    0.58       1.0  T
   3    -12.0919033 -0.271793E+01  0.210E+00    0.54       1.0  T
   4    -12.1794909 -0.875876E-01  0.852E-01    0.70       1.0  T
   5    -12.1821707 -0.267981E-02  0.714E-01    1.06       1.0  T
   6    -12.1907877 -0.861707E-02  0.301E-01    0.90       1.0  T
   7    -12.1866663  0.412146E-02  0.368E-01    0.78       1.0  T
   8    -12.1912049 -0.453862E-02  0.168E-01    0.83       1.0  T
   9    -12.1918316 -0.626687E-03  0.723E-02    0.85       1.0  T
  10    -12.1918569 -0.253702E-04  0.530E-02    0.86       1.0  T
  11    -12.1918559  0.103234E-05  0.430E-02    0.86       1.0  T
  12    -12.1918521  0.380334E-05  0.228E-02    0.85       1.3  T
  13    -12.1918558 -0.367746E-05  0.155E-02    0.85       1.9  T
  14    -12.1918575 -0.171277E-05  0.124E-02    0.85       2.4  T
  15    -12.1918588 -0.130952E-05  0.913E-03    0.85       3.3  T
  16    -12.1918592 -0.408048E-06  0.772E-03    0.85       3.9  T
  17    -12.1918601 -0.854784E-06  0.213E-03    0.85      14.2  T
  18    -12.1918601 -0.622043E-07  0.403E-04    0.85      74.9  T
  19    -12.1918601 -0.176079E-08  0.840E-05    0.85     358.8  T
     SCC iter.                  ...        0 min,  0.003 sec
     gradient                   ...        0 min,  0.000 sec
 * total energy  :   -11.8569498 Eh     change       -0.2026210E-01 Eh
   gradient norm :     0.0859985 Eh/α   predicted    -0.2178690E-01 (   7.53%)
   displ. norm   :     0.6266367 α      lambda       -0.2192498E-01
   maximum displ.:     0.3452473 α      in ANC's #7, #5, #21, ...

........................................................................
.............................. CYCLE   16 ..............................
........................................................................
   1    -12.0565117 -0.120565E+02  0.268E+00    1.17       0.0  T
   2    -11.4516127  0.604899E+00  0.538E+00    2.70       1.0  T
   3    -12.0536328 -0.602020E+00  0.205E+00    1.21       1.0  T
   4    -12.0496625  0.397023E-02  0.168E+00    1.65       1.0  T
   5    -11.9934126  0.562500E-01  0.185E+00    1.05       1.0  T
   6    -12.1040569 -0.110644E+00  0.742E-01    1.59       1.0  T
   7    -12.1048970 -0.840039E-03  0.696E-01    1.58       1.0  T
   8    -12.1128619 -0.796488E-02  0.298E-01    1.48       1.0  T
   9    -12.1127083  0.153536E-03  0.265E-01    1.49       1.0  T
  10    -12.1138624 -0.115406E-02  0.689E-02    1.46       1.0  T
  11    -12.1139120 -0.496394E-04  0.313E-02    1.45       1.0  T
  12    -12.1139298 -0.177384E-04  0.109E-02    1.45       2.8  T
  13    -12.1139312 -0.143481E-05  0.124E-03    1.45      24.3  T
  14    -12.1139312 -0.117775E-07  0.475E-04    1.45      63.4  T
  15    -12.1139312 -0.575550E-09  0.120E-04    1.45     252.1  T
     SCC iter.                  ...        0 min,  0.002 sec
     gradient                   ...        0 min,  0.000 sec
 * total energy  :   -11.8508073 Eh     change        0.6142499E-02 Eh
   gradient norm :     0.1796523 Eh/α   predicted    -0.1526717E-01 (-348.55%)
   displ. norm   :     0.3546869 α      lambda       -0.2939446E-01
   maximum displ.:     0.1826312 α      in ANC's #9, #1, #6, ...

........................................................................
.............................. CYCLE   17 ..............................
........................................................................
   1    -12.1563950 -0.121564E+02  0.162E+00    1.36       0.0  T
   2     -9.4544341  0.270196E+01  0.103E+01    0.57       1.0  T
   3    -12.1475723 -0.269314E+01  0.139E+00    0.79       1.0  T
   4    -12.0715316  0.760407E-01  0.175E+00    0.76       1.0  T
   5    -12.1701055 -0.985739E-01  0.718E-01    1.21       1.0  T
   6    -12.1778332 -0.772767E-02  0.228E-01    1.07       1.0  T
   7    -12.1770797  0.753437E-03  0.265E-01    1.10       1.0  T
   8    -12.1771699 -0.901392E-04  0.191E-01    1.10       1.0  T
   9    -12.1779575 -0.787660E-03  0.411E-02    1.04       1.0  T
  10    -12.1779560  0.153322E-05  0.170E-02    1.04       1.8  T
  11    -12.1779586 -0.261805E-05  0.102E-02    1.04       3.0  T
  12    -12.1779605 -0.182839E-05  0.180E-03    1.04      16.7  T
  13    -12.1779605 -0.441808E-07  0.941E-04    1.04      32.0  T
  14    -12.1779605 -0.434349E-08  0.726E-04    1.04      41.5  T
     SCC iter.                  ...        0 min,  0.002 sec
     gradient                   ...        0 min,  0.000 sec
 * total energy  :   -11.8667997 Eh     change       -0.1599238E-01 Eh
   gradient norm :     0.0477401 Eh/α   predicted    -0.1654619E-01 (   3.46%)
   displ. norm   :     0.5770013 α      lambda       -0.1783514E-01
   maximum displ.:     0.2927910 α      in ANC's #4, #27, #1, ...

........................................................................
.............................. CYCLE   18 ..............................
........................................................................
   1    -12.2105160 -0.122105E+02  0.136E+00    1.05       0.0  T
   2    -11.7918907  0.418625E+00  0.388E+00    0.46       1.0  T
   3    -12.1667107 -0.374820E+00  0.149E+00    1.45       1.0  T
   4    -12.2017899 -0.350791E-01  0.674E-01    0.80       1.0  T
   5    -12.2050341 -0.324422E-02  0.558E-01    1.06       1.0  T
   6    -12.2102057 -0.517164E-02  0.448E-01    1.03       1.0  T
   7    -12.2093415  0.864253E-03  0.458E-01    1.05       1.0  T
   8    -12.2113698 -0.202838E-02  0.358E-01    1.02       1.0  T
   9    -12.2124957 -0.112588E-02  0.269E-01    1.00       1.0  T
  10    -12.2133829 -0.887231E-03  0.199E-01    0.98       1.0  T
  11    -12.2138346 -0.451645E-03  0.101E-01    0.96       1.0  T
  12    -12.2139510 -0.116398E-03  0.321E-02    0.95       1.0  T
  13    -12.2139648 -0.138253E-04  0.112E-02    0.95       2.7  T
  14    -12.2139669 -0.209512E-05  0.170E-03    0.95      17.7  T
  15    -12.2139670 -0.467076E-07  0.472E-04    0.95      63.8  T
  16    -12.2139670 -0.282480E-08  0.191E-04    0.95     158.2  T
     SCC iter.                  ...        0 min,  0.002 sec
     gradient                   ...        0 min,  0.000 sec
 * total energy  :   -11.8576139 Eh     change        0.9185811E-02 Eh
   gradient norm :     0.1593545 Eh/α   predicted    -0.1188650E-01 (-229.40%)
   displ. norm   :     0.3174575 α      lambda       -0.3348901E-01
   maximum displ.:     0.1183965 α      in ANC's #9, #7, #15, ...

........................................................................
.............................. CYCLE   19 ..............................
........................................................................
   1    -12.1852548 -0.121853E+02  0.109E+00    0.88       0.0  T
   2    -12.0998198  0.854350E-01  0.172E+00    1.80       1.0  T
   3    -12.0875524  0.122674E-01  0.184E+00    0.65       1.0  T
   4    -12.1809067 -0.933543E-01  0.754E-01    1.13       1.0  T
   5    -12.1824102 -0.150358E-02  0.615E-01    1.17       1.0  T
   6    -12.1793840  0.302626E-02  0.602E-01    1.18       1.0  T
   7    -12.1855300 -0.614603E-02  0.466E-01    1.13       1.0  T
   8    -12.1898847 -0.435473E-02  0.162E-01    1.05       1.0  T
   9    -12.1901445 -0.259766E-03  0.120E-01    1.04       1.0  T
  10    -12.1902708 -0.126323E-03  0.887E-02    1.04       1.0  T
  11    -12.1904277 -0.156830E-03  0.133E-02    1.02       2.3  T
  12    -12.1904319 -0.425094E-05  0.172E-03    1.02      17.5  T
  13    -12.1904319 -0.249329E-07  0.616E-04    1.02      48.9  T
  14    -12.1904319 -0.550928E-09  0.204E-04    1.02     148.1  T
     SCC iter.                  ...        0 min,  0.002 sec
     gradient                   ...        0 min,  0.000 sec
 * total energy  :   -11.8747772 Eh     change       -0.1716332E-01 Eh
   gradient norm :     0.0397945 Eh/α   predicted    -0.1843200E-01 (   7.39%)
   displ. norm   :     0.5202832 α      lambda       -0.9116150E-02
   maximum displ.:     0.1949225 α      in ANC's #5, #7, #2, ...

........................................................................
.............................. CYCLE   20 ..............................
........................................................................
   1    -12.2062521 -0.122063E+02  0.148E+00    0.99       0.0  T
   2    -12.1699886  0.362636E-01  0.155E+00    1.55       1.0  T
   3    -11.7407059  0.429283E+00  0.369E+00    0.47       1.0  T
   4    -12.1871484 -0.446443E+00  0.107E+00    1.35       1.0  T
   5    -12.2002334 -0.130850E-01  0.746E-01    1.20       1.0  T
   6    -12.1917204  0.851307E-02  0.676E-01    1.31       1.0  T
   7    -12.2019614 -0.102410E-01  0.509E-01    1.23       1.0  T
   8    -12.2050627 -0.310132E-02  0.389E-01    1.19       1.0  T
   9    -12.2068722 -0.180949E-02  0.256E-01    1.16       1.0  T
  10    -12.2075842 -0.711932E-03  0.159E-01    1.15       1.0  T
  11    -12.2081273 -0.543102E-03  0.383E-02    1.12       1.0  T
  12    -12.2081656 -0.383330E-04  0.140E-02    1.12       2.2  T
  13    -12.2081694 -0.384099E-05  0.253E-03    1.11      11.9  T
  14    -12.2081694  0.286093E-07  0.156E-03    1.11      19.4  T
  15    -12.2081694 -0.314354E-07  0.553E-04    1.11      54.5  T
  16    -12.2081694 -0.574749E-08  0.200E-04    1.11     151.1  T
     SCC iter.                  ...        0 min,  0.003 sec
     gradient                   ...        0 min,  0.000 sec
 * total energy  :   -11.8732311 Eh     change        0.1546156E-02 Eh
   gradient norm :     0.1026151 Eh/α   predicted    -0.5791915E-02 (-474.60%)
   displ. norm   :     0.3398120 α      lambda       -0.1694793E-01
   maximum displ.:     0.1313593 α      in ANC's #7, #19, #13, ...
 * RMSD in coord.:     1.7998899 α      energy gain  -0.6382591E+00 Eh

generating ANC from model Hessian ...
Using Lindh-Hessian (1995)
 Shifting diagonal of input Hessian by    1.4086390038538140E-002
 Lowest  eigenvalues of input Hessian
    0.010000    0.013882    0.014038    0.014073    0.000000    0.000000
    0.000000    0.000000    0.000000    0.000000    0.014173    0.014234
    0.014266    0.014341    0.014406    0.014716    0.014756    0.014867
 Highest eigenvalues
    0.522728    0.551446    0.739418    0.870992    1.725509    2.650238


........................................................................
.............................. CYCLE   21 ..............................
........................................................................
   1    -12.2015605 -0.122016E+02  0.911E-01    1.11       0.0  T
   2    -12.2013244  0.236132E-03  0.605E-01    1.15       1.0  T
   3    -12.1071713  0.941530E-01  0.157E+00    0.70       1.0  T
   4    -12.1934904 -0.863191E-01  0.581E-01    1.31       1.0  T
   5    -12.2005973 -0.710685E-02  0.187E-01    1.18       1.0  T
   6    -12.2013285 -0.731282E-03  0.127E-01    1.16       1.0  T
   7    -12.2013587 -0.301703E-04  0.101E-01    1.15       1.0  T
   8    -12.2016515 -0.292765E-03  0.253E-02    1.13       1.2  T
   9    -12.2016502  0.131413E-05  0.195E-02    1.13       1.5  T
  10    -12.2016557 -0.552744E-05  0.974E-03    1.13       3.1  T
  11    -12.2016578 -0.206684E-05  0.327E-03    1.13       9.2  T
  12    -12.2016580 -0.271492E-06  0.599E-04    1.13      50.3  T
  13    -12.2016580 -0.642978E-08  0.511E-05    1.13     589.6  T
     SCC iter.                  ...        0 min,  0.002 sec
     gradient                   ...        0 min,  0.000 sec
 * total energy  :   -11.8821379 Eh     change       -0.8906799E-02 Eh
   gradient norm :     0.0373879 Eh/α   predicted     0.0000000E+00 (-100.00%)
   displ. norm   :     0.3766760 α      lambda       -0.5169502E-02
   maximum displ.:     0.1750654 α      in ANC's #16, #14, #17, ...

........................................................................
.............................. CYCLE   22 ..............................
........................................................................
   1    -12.2094781 -0.122095E+02  0.106E+00    1.15       0.0  T
   2    -12.2086018  0.876290E-03  0.645E-01    1.09       1.0  T
   3    -12.1241155  0.844863E-01  0.151E+00    1.92       1.0  T
   4    -12.2070808 -0.829653E-01  0.297E-01    1.21       1.0  T
   5    -12.2091607 -0.207990E-02  0.133E-01    1.20       1.0  T
   6    -12.2095339 -0.373234E-03  0.484E-02    1.16       1.0  T
   7    -12.2095298  0.415365E-05  0.311E-02    1.15       1.0  T
   8    -12.2095545 -0.246998E-04  0.739E-03    1.15       4.1  T
   9    -12.2095553 -0.832213E-06  0.399E-03    1.16       7.6  T
  10    -12.2095555 -0.230832E-06  0.196E-03    1.16      15.4  T
  11    -12.2095556 -0.855893E-07  0.453E-04    1.16      66.6  T
  12    -12.2095556 -0.247197E-08  0.151E-04    1.16     199.8  T
     SCC iter.                  ...        0 min,  0.002 sec
     gradient                   ...        0 min,  0.000 sec
 * total energy  :   -11.8857977 Eh     change       -0.3659836E-02 Eh
   gradient norm :     0.0202181 Eh/α   predicted    -0.2951494E-02 ( -19.35%)
   displ. norm   :     0.6393070 α      lambda       -0.8441000E-02
   maximum displ.:     0.3612815 α      in ANC's #17, #18, #10, ...

........................................................................
.............................. CYCLE   23 ..............................
........................................................................
   1    -12.2201628 -0.122202E+02  0.171E+00    1.18       0.0  T
   2    -12.2067264  0.134364E-01  0.106E+00    0.92       1.0  T
   3    -11.9688559  0.237870E+00  0.281E+00    2.84       1.0  T
   4    -12.1807726 -0.211917E+00  0.124E+00    1.67       1.0  T
   5    -12.2136180 -0.328455E-01  0.574E-01    1.37       1.0  T
   6    -12.2168016 -0.318358E-02  0.388E-01    1.30       1.0  T
   7    -12.2198820 -0.308038E-02  0.239E-01    1.23       1.0  T
   8    -12.2207230 -0.840953E-03  0.602E-02    1.18       1.0  T
   9    -12.2207307 -0.768874E-05  0.247E-02    1.17       1.2  T
  10    -12.2207339 -0.322564E-05  0.159E-02    1.18       1.9  T
  11    -12.2207365 -0.263309E-05  0.591E-03    1.17       5.1  T
  12    -12.2207373 -0.831257E-06  0.110E-03    1.17      27.4  T
  13    -12.2207374 -0.109677E-07  0.704E-04    1.17      42.8  T
  14    -12.2207374 -0.103424E-07  0.146E-04    1.17     206.4  T
     SCC iter.                  ...        0 min,  0.003 sec
     gradient                   ...        0 min,  0.000 sec
 * total energy  :   -11.8887317 Eh     change       -0.2933967E-02 Eh
   gradient norm :     0.0409323 Eh/α   predicted    -0.5945461E-02 ( 102.64%)
   displ. norm   :     0.4669077 α      lambda       -0.6833745E-02
   maximum displ.:     0.1975388 α      in ANC's #18, #16, #14, ...

........................................................................
.............................. CYCLE   24 ..............................
........................................................................
   1    -12.2165621 -0.122166E+02  0.163E+00    1.14       0.0  T
   2    -12.2163586  0.203537E-03  0.107E+00    1.15       1.0  T
   3    -12.1685018  0.478568E-01  0.111E+00    0.90       1.0  T
   4    -12.1943055 -0.258037E-01  0.821E-01    1.54       1.0  T
   5    -12.2165058 -0.222004E-01  0.110E-01    1.17       1.0  T
   6    -12.2167077 -0.201892E-03  0.537E-02    1.15       1.0  T
   7    -12.2167115 -0.374919E-05  0.297E-02    1.15       1.0  T
   8    -12.2167234 -0.119617E-04  0.102E-02    1.16       3.0  T
   9    -12.2167240 -0.577044E-06  0.629E-03    1.16       4.8  T
  10    -12.2167245 -0.530022E-06  0.187E-03    1.16      16.1  T
  11    -12.2167246 -0.510755E-07  0.135E-03    1.16      22.4  T
  12    -12.2167246 -0.464441E-07  0.143E-04    1.16     210.2  T
  13    -12.2167246 -0.492397E-09  0.240E-05    1.16    1254.8  T
     SCC iter.                  ...        0 min,  0.002 sec
     gradient                   ...        0 min,  0.001 sec
 * total energy  :   -11.8931833 Eh     change       -0.4451584E-02 Eh
   gradient norm :     0.0258172 Eh/α   predicted    -0.4161771E-02 (  -6.51%)
   displ. norm   :     0.4554019 α      lambda       -0.3406140E-02
   maximum displ.:     0.2359461 α      in ANC's #16, #18, #17, ...

........................................................................
.............................. CYCLE   25 ..............................
........................................................................
   1    -12.2199522 -0.122200E+02  0.156E+00    1.08       0.0  T
   2    -12.2183992  0.155298E-02  0.110E+00    1.20       1.0  T
   3     -7.6222342  0.459617E+01  0.110E+01    0.63       1.0  T
   4    -11.7425322 -0.412030E+01  0.336E+00    0.43       1.0  T
   5    -12.2061216 -0.463589E+00  0.574E-01    0.88       1.0  T
   6    -12.2198290 -0.137074E-01  0.134E-01    1.15       1.0  T
   7    -12.2195197  0.309304E-03  0.130E-01    1.16       1.0  T
   8    -12.2200356 -0.515905E-03  0.588E-02    1.10       1.0  T
   9    -12.2200733 -0.377774E-04  0.385E-02    1.13       1.0  T
  10    -12.2200958 -0.225028E-04  0.281E-02    1.13       1.1  T
  11    -12.2200946  0.122844E-05  0.275E-02    1.13       1.1  T
  12    -12.2200955 -0.938703E-06  0.264E-02    1.13       1.1  T
  13    -12.2200964 -0.886427E-06  0.259E-02    1.13       1.2  T
  14    -12.2200981 -0.170586E-05  0.249E-02    1.12       1.2  T
  15    -12.2200997 -0.155352E-05  0.244E-02    1.12       1.2  T
  16    -12.2201006 -0.936456E-06  0.240E-02    1.12       1.3  T
  17    -12.2201017 -0.106930E-05  0.229E-02    1.12       1.3  T
  18    -12.2201068 -0.514951E-05  0.162E-02    1.12       1.9  T
  19    -12.2201102 -0.331096E-05  0.926E-03    1.12       3.3  T
  20    -12.2201117 -0.152812E-05  0.105E-03    1.12      28.6  T
  21    -12.2201117 -0.141014E-07  0.152E-04    1.12     199.0  T
  22    -12.2201117 -0.260370E-09  0.490E-05    1.12     615.8  T
     SCC iter.                  ...        0 min,  0.003 sec
     gradient                   ...        0 min,  0.000 sec
 * total energy  :   -11.8941389 Eh     change       -0.9556893E-03 Eh
   gradient norm :     0.0409823 Eh/α   predicted    -0.2056260E-02 ( 115.16%)
   displ. norm   :     0.2943157 α      lambda       -0.3056639E-02
   maximum displ.:     0.1361727 α      in ANC's #10, #17, #16, ...

........................................................................
.............................. CYCLE   26 ..............................
........................................................................
   1    -12.2187939 -0.122188E+02  0.660E-01    1.17       0.0  T
   2    -12.2186280  0.165915E-03  0.428E-01    1.21       1.0  T
   3    -12.1912770  0.273510E-01  0.867E-01    0.83       1.0  T
   4    -12.2099690 -0.186920E-01  0.474E-01    1.40       1.0  T
   5    -12.2186346 -0.866564E-02  0.100E-01    1.21       1.0  T
   6    -12.2186057  0.289765E-04  0.775E-02    1.21       1.0  T
   7    -12.2188443 -0.238639E-03  0.211E-02    1.18       1.4  T
   8    -12.2188418  0.250194E-05  0.139E-02    1.17       2.2  T
   9    -12.2188461 -0.430587E-05  0.207E-03    1.18      14.6  T
  10    -12.2188462 -0.631101E-07  0.153E-03    1.18      19.7  T
  11    -12.2188462 -0.905363E-08  0.363E-04    1.18      83.1  T
  12    -12.2188462 -0.242594E-08  0.193E-04    1.18     155.9  T
     SCC iter.                  ...        0 min,  0.002 sec
     gradient                   ...        0 min,  0.000 sec
 * total energy  :   -11.8961706 Eh     change       -0.2031651E-02 Eh
   gradient norm :     0.0245099 Eh/α   predicted    -0.1660703E-02 ( -18.26%)
   displ. norm   :     0.2873820 α      lambda       -0.2263370E-02
   maximum displ.:     0.1257638 α      in ANC's #17, #2, #5, ...

........................................................................
.............................. CYCLE   27 ..............................
........................................................................
   1    -12.2280774 -0.122281E+02  0.610E-01    1.29       0.0  T
   2    -12.2254143  0.266308E-02  0.456E-01    1.47       1.0  T
   3    -12.1795629  0.458514E-01  0.115E+00    0.83       1.0  T
   4    -12.2196561 -0.400932E-01  0.510E-01    1.53       1.0  T
   5    -12.2282027 -0.854658E-02  0.124E-01    1.33       1.0  T
   6    -12.2281773  0.253618E-04  0.780E-02    1.35       1.0  T
   7    -12.2284289 -0.251606E-03  0.301E-02    1.32       1.0  T
   8    -12.2284325 -0.357598E-05  0.151E-02    1.32       2.0  T
   9    -12.2284306  0.191582E-05  0.960E-03    1.32       3.1  T
  10    -12.2284302  0.347428E-06  0.963E-03    1.32       3.1  T
  11    -12.2284331 -0.287658E-05  0.141E-03    1.32      21.4  T
  12    -12.2284331 -0.278905E-07  0.843E-04    1.32      35.8  T
  13    -12.2284331 -0.146254E-07  0.213E-04    1.32     141.5  T
     SCC iter.                  ...        0 min,  0.002 sec
     gradient                   ...        0 min,  0.001 sec
 * total energy  :   -11.8969621 Eh     change       -0.7914723E-03 Eh
   gradient norm :     0.0258868 Eh/α   predicted    -0.1225146E-02 (  54.79%)
   displ. norm   :     0.4741250 α      lambda       -0.2524014E-02
   maximum displ.:     0.2315841 α      in ANC's #16, #18, #17, ...

........................................................................
.............................. CYCLE   28 ..............................
........................................................................
   1    -12.2207136 -0.122207E+02  0.155E+00    1.27       0.0  T
   2    -12.2204879  0.225692E-03  0.973E-01    1.22       1.0  T
   3    -12.1795560  0.409319E-01  0.106E+00    1.87       1.0  T
   4    -12.2162993 -0.367433E-01  0.361E-01    1.12       1.0  T
   5    -12.2204412 -0.414192E-02  0.138E-01    1.33       1.0  T
   6    -12.2208082 -0.366993E-03  0.550E-02    1.26       1.0  T
   7    -12.2208247 -0.164957E-04  0.312E-02    1.27       1.0  T
   8    -12.2208541 -0.294682E-04  0.138E-02    1.28       2.2  T
   9    -12.2208589 -0.478939E-05  0.424E-03    1.28       7.1  T
  10    -12.2208589  0.582373E-07  0.285E-03    1.28      10.6  T
  11    -12.2208591 -0.253447E-06  0.695E-04    1.28      43.4  T
  12    -12.2208591 -0.475423E-08  0.347E-04    1.28      86.8  T
     SCC iter.                  ...        0 min,  0.002 sec
     gradient                   ...        0 min,  0.001 sec
 * total energy  :   -11.8985131 Eh     change       -0.1551035E-02 Eh
   gradient norm :     0.0238189 Eh/α   predicted    -0.1545702E-02 (  -0.34%)
   displ. norm   :     0.2585609 α      lambda       -0.1027407E-02
   maximum displ.:     0.1375071 α      in ANC's #17, #16, #18, ...

........................................................................
.............................. CYCLE   29 ..............................
........................................................................
   1    -12.2315870 -0.122316E+02  0.661E-01    1.26       0.0  T
   2    -12.2313687  0.218327E-03  0.416E-01    1.21       1.0  T
   3    -12.2090936  0.222751E-01  0.868E-01    1.69       1.0  T
   4    -12.2292353 -0.201417E-01  0.229E-01    1.15       1.0  T
   5    -12.2315092 -0.227391E-02  0.599E-02    1.27       1.0  T
   6    -12.2316145 -0.105253E-03  0.282E-02    1.24       1.1  T
   7    -12.2316090  0.548053E-05  0.214E-02    1.24       1.4  T
   8    -12.2316247 -0.156747E-04  0.529E-03    1.25       5.7  T
   9    -12.2316249 -0.223899E-06  0.249E-03    1.25      12.1  T
  10    -12.2316250 -0.120105E-06  0.410E-04    1.25      73.5  T
  11    -12.2316250 -0.184648E-08  0.285E-04    1.25     105.9  T
     SCC iter.                  ...        0 min,  0.001 sec
     gradient                   ...        0 min,  0.000 sec
 * total energy  :   -11.8989341 Eh     change       -0.4210066E-03 Eh
   gradient norm :     0.0211188 Eh/α   predicted    -0.5480461E-03 (  30.18%)
   displ. norm   :     0.3378555 α      lambda       -0.1173961E-02
   maximum displ.:     0.1487486 α      in ANC's #17, #14, #16, ...

........................................................................
.............................. CYCLE   30 ..............................
........................................................................
   1    -12.2226975 -0.122227E+02  0.784E-01    1.27       0.0  T
   2    -12.2216440  0.105350E-02  0.508E-01    1.16       1.0  T
   3    -12.1489299  0.727141E-01  0.141E+00    2.15       1.0  T
   4    -12.2221201 -0.731901E-01  0.154E-01    1.32       1.0  T
   5    -12.2227081 -0.588039E-03  0.518E-02    1.26       1.0  T
   6    -12.2227199 -0.118364E-04  0.442E-02    1.24       1.0  T
   7    -12.2227249 -0.495087E-05  0.355E-02    1.26       1.0  T
   8    -12.2227553 -0.304208E-04  0.102E-02    1.25       3.0  T
   9    -12.2227561 -0.826576E-06  0.571E-03    1.25       5.3  T
  10    -12.2227566 -0.484746E-06  0.344E-03    1.25       8.8  T
  11    -12.2227570 -0.398118E-06  0.177E-04    1.25     170.4  T
  12    -12.2227570 -0.136041E-09  0.879E-05    1.25     343.1  T
     SCC iter.                  ...        0 min,  0.002 sec
     gradient                   ...        0 min,  0.001 sec
 * total energy  :   -11.8994237 Eh     change       -0.4896127E-03 Eh
   gradient norm :     0.0195637 Eh/α   predicted    -0.6539829E-03 (  33.57%)
   displ. norm   :     0.2153339 α      lambda       -0.1282660E-02
   maximum displ.:     0.0994907 α      in ANC's #3, #16, #1, ...

........................................................................
.............................. CYCLE   31 ..............................
........................................................................
   1    -12.2306888 -0.122307E+02  0.536E-01    1.34       0.0  T
   2    -12.2304307  0.258023E-03  0.334E-01    1.32       1.0  T
   3    -12.2201701  0.102606E-01  0.525E-01    1.56       1.0  T
   4    -12.2229768 -0.280666E-02  0.463E-01    1.10       1.0  T
   5    -12.2307214 -0.774455E-02  0.503E-02    1.34       1.0  T
   6    -12.2307555 -0.340961E-04  0.270E-02    1.33       1.1  T
   7    -12.2307490  0.646588E-05  0.226E-02    1.32       1.3  T
   8    -12.2307600 -0.109921E-04  0.106E-02    1.33       2.8  T
   9    -12.2307643 -0.431916E-05  0.124E-03    1.33      24.4  T
  10    -12.2307643 -0.461193E-07  0.447E-04    1.33      67.5  T
  11    -12.2307643 -0.678400E-09  0.162E-04    1.33     186.3  T
     SCC iter.                  ...        0 min,  0.002 sec
     gradient                   ...        0 min,  0.000 sec
 * total energy  :   -11.8997438 Eh     change       -0.3200287E-03 Eh
   gradient norm :     0.0212105 Eh/α   predicted    -0.6710669E-03 ( 109.69%)
   displ. norm   :     0.1321709 α      lambda       -0.6553123E-03
   maximum displ.:     0.0558107 α      in ANC's #18, #17, #3, ...

........................................................................
.............................. CYCLE   32 ..............................
........................................................................
   1    -12.2319779 -0.122320E+02  0.395E-01    1.28       0.0  T
   2    -12.2318160  0.161910E-03  0.250E-01    1.24       1.0  T
   3    -12.2270031  0.481289E-02  0.496E-01    1.47       1.0  T
   4    -12.2264180  0.585108E-03  0.343E-01    1.10       1.0  T
   5    -12.2319861 -0.556811E-02  0.313E-02    1.29       1.0  T
   6    -12.2320201 -0.339528E-04  0.155E-02    1.27       1.9  T
   7    -12.2320142  0.590204E-05  0.146E-02    1.27       2.1  T
   8    -12.2320219 -0.770343E-05  0.163E-03    1.27      18.5  T
   9    -12.2320219 -0.148040E-08  0.150E-03    1.28      20.1  T
  10    -12.2320219 -0.465006E-07  0.551E-04    1.28      54.7  T
  11    -12.2320220 -0.840983E-08  0.138E-04    1.28     218.6  T
     SCC iter.                  ...        0 min,  0.002 sec
     gradient                   ...        0 min,  0.000 sec
 * total energy  :   -11.9001222 Eh     change       -0.3784868E-03 Eh
   gradient norm :     0.0076011 Eh/α   predicted    -0.3333793E-03 ( -11.92%)
   displ. norm   :     0.2158177 α      lambda       -0.3565801E-03
   maximum displ.:     0.1031226 α      in ANC's #1, #16, #5, ...

........................................................................
.............................. CYCLE   33 ..............................
........................................................................
   1    -12.2289892 -0.122290E+02  0.539E-01    1.28       0.0  T
   2    -12.2287015  0.287650E-03  0.355E-01    1.34       1.0  T
   3    -12.1955419  0.331596E-01  0.928E-01    0.84       1.0  T
   4    -12.2233964 -0.278544E-01  0.349E-01    1.48       1.0  T
   5    -12.2288328 -0.543647E-02  0.774E-02    1.33       1.0  T
   6    -12.2289954 -0.162528E-03  0.345E-02    1.30       1.0  T
   7    -12.2290193 -0.239057E-04  0.243E-02    1.28       1.2  T
   8    -12.2290243 -0.500558E-05  0.146E-02    1.29       2.1  T
   9    -12.2290310 -0.669812E-05  0.251E-03    1.29      12.0  T
  10    -12.2290308  0.169177E-06  0.331E-03    1.29       9.1  T
  11    -12.2290310 -0.232205E-06  0.483E-04    1.29      62.4  T
  12    -12.2290310 -0.537889E-08  0.183E-04    1.29     164.5  T
     SCC iter.                  ...        0 min,  0.002 sec
     gradient                   ...        0 min,  0.001 sec
 * total energy  :   -11.9001745 Eh     change       -0.5221247E-04 Eh
   gradient norm :     0.0170069 Eh/α   predicted    -0.1865954E-03 ( 257.38%)
   displ. norm   :     0.1434742 α      lambda       -0.4978875E-03
   maximum displ.:     0.0696921 α      in ANC's #11, #3, #1, ...

........................................................................
.............................. CYCLE   34 ..............................
........................................................................
   1    -12.2327793 -0.122328E+02  0.213E-01    1.29       0.0  T
   2    -12.2325328  0.246520E-03  0.166E-01    1.23       1.0  T
   3    -12.2302504  0.228238E-02  0.288E-01    1.43       1.0  T
   4    -12.2304079 -0.157511E-03  0.232E-01    1.16       1.0  T
   5    -12.2327628 -0.235483E-02  0.420E-02    1.29       1.0  T
   6    -12.2328236 -0.608250E-04  0.628E-03    1.28       4.8  T
   7    -12.2328218  0.178374E-05  0.766E-03    1.27       3.9  T
   8    -12.2328234 -0.165117E-05  0.300E-03    1.27      10.1  T
   9    -12.2328237 -0.257331E-06  0.111E-03    1.27      27.2  T
  10    -12.2328237 -0.328340E-07  0.202E-04    1.27     149.2  T
  11    -12.2328237 -0.505883E-09  0.137E-04    1.27     220.4  T
     SCC iter.                  ...        0 min,  0.001 sec
     gradient                   ...        0 min,  0.000 sec
 * total energy  :   -11.9004296 Eh     change       -0.2551121E-03 Eh
   gradient norm :     0.0114022 Eh/α   predicted    -0.2540676E-03 (  -0.41%)
   displ. norm   :     0.3225072 α      lambda       -0.6371012E-03
   maximum displ.:     0.1621923 α      in ANC's #3, #1, #16, ...

........................................................................
.............................. CYCLE   35 ..............................
........................................................................
   1    -12.2213035 -0.122213E+02  0.677E-01    1.28       0.0  T
   2    -12.2208316  0.471956E-03  0.432E-01    1.36       1.0  T
   3    -12.1577411  0.630905E-01  0.124E+00    0.71       1.0  T
   4    -12.2130030 -0.552619E-01  0.419E-01    1.52       1.0  T
   5    -12.2207807 -0.777772E-02  0.117E-01    1.36       1.0  T
   6    -12.2213173 -0.536595E-03  0.391E-02    1.30       1.0  T
   7    -12.2213567 -0.394614E-04  0.310E-02    1.28       1.0  T
   8    -12.2213529  0.381633E-05  0.210E-02    1.28       1.4  T
   9    -12.2213632 -0.102381E-04  0.636E-03    1.29       4.7  T
[...]
 * total energy  :   -11.9044217 Eh     change       -0.2122227E-03 Eh
   gradient norm :     0.0023207 Eh/α   predicted    -0.1605455E-03 ( -24.35%)
   displ. norm   :     0.0372669 α      lambda       -0.5852834E-04
   maximum displ.:     0.0198714 α      in ANC's #12, #9, #14, ...

........................................................................
.............................. CYCLE   71 ..............................
........................................................................
   1    -12.2257950 -0.122258E+02  0.888E-02    1.15       0.0  T
   2    -12.2257947  0.302471E-06  0.553E-02    1.15       1.0  T
   3    -12.2257124  0.822438E-04  0.500E-02    1.17       1.0  T
   4    -12.2257845 -0.721008E-04  0.158E-02    1.14       1.9  T
   5    -12.2257945 -0.997161E-05  0.616E-03    1.15       4.9  T
   6    -12.2257953 -0.794617E-06  0.225E-03    1.15      13.4  T
   7    -12.2257954 -0.773949E-07  0.520E-04    1.15      58.0  T
   8    -12.2257954 -0.222816E-08  0.281E-04    1.15     107.3  T
     SCC iter.                  ...        0 min,  0.001 sec
     gradient                   ...        0 min,  0.000 sec
 * total energy  :   -11.9044510 Eh     change       -0.2929811E-04 Eh
   gradient norm :     0.0006431 Eh/α   predicted    -0.2930393E-04 (   0.02%)
   displ. norm   :     0.0347641 α      lambda       -0.6587310E-05
   maximum displ.:     0.0183917 α      in ANC's #7, #11, #5, ...

........................................................................
.............................. CYCLE   72 ..............................
........................................................................
   1    -12.2259437 -0.122259E+02  0.116E-01    1.15       0.0  T
   2    -12.2259434  0.315557E-06  0.728E-02    1.15       1.0  T
   3    -12.2258243  0.119123E-03  0.538E-02    1.12       1.0  T
   4    -12.2259429 -0.118624E-03  0.764E-03    1.15       3.9  T
   5    -12.2259409  0.198897E-05  0.977E-03    1.15       3.1  T
   6    -12.2259441 -0.318306E-05  0.752E-04    1.15      40.1  T
   7    -12.2259441 -0.285736E-08  0.421E-04    1.15      71.6  T
   8    -12.2259441 -0.410186E-09  0.230E-04    1.15     131.2  T
     SCC iter.                  ...        0 min,  0.001 sec
     gradient                   ...        0 min,  0.001 sec
 * total energy  :   -11.9044506 Eh     change        0.3446165E-06 Eh
   gradient norm :     0.0007531 Eh/α   predicted    -0.3295839E-05 (*******%)
   displ. norm   :     0.0224297 α      lambda       -0.7110997E-05
   maximum displ.:     0.0115462 α      in ANC's #7, #2, #9, ...

........................................................................
.............................. CYCLE   73 ..............................
........................................................................
   1    -12.2260951 -0.122261E+02  0.710E-02    1.15       0.0  T
   2    -12.2260950  0.732752E-07  0.451E-02    1.15       1.0  T
   3    -12.2260567  0.383444E-04  0.311E-02    1.13       1.0  T
   4    -12.2260938 -0.371417E-04  0.638E-03    1.15       4.7  T
   5    -12.2260946 -0.768524E-06  0.485E-03    1.15       6.2  T
   6    -12.2260953 -0.659262E-06  0.103E-03    1.15      29.2  T
   7    -12.2260953 -0.139519E-07  0.381E-04    1.15      79.1  T
   8    -12.2260953 -0.687534E-09  0.144E-04    1.15     209.1  T
     SCC iter.                  ...        0 min,  0.003 sec
     gradient                   ...        0 min,  0.001 sec
 * total energy  :   -11.9044577 Eh     change       -0.7127269E-05 Eh
   gradient norm :     0.0006059 Eh/α   predicted    -0.3556107E-05 ( -50.11%)
   displ. norm   :     0.0416254 α      lambda       -0.4403424E-05
   maximum displ.:     0.0214178 α      in ANC's #2, #5, #9, ...

........................................................................
.............................. CYCLE   74 ..............................
........................................................................
   1    -12.2257374 -0.122257E+02  0.633E-02    1.15       0.0  T
   2    -12.2257284  0.904227E-05  0.436E-02    1.16       1.0  T
   3    -12.2249698  0.758599E-03  0.136E-01    1.07       1.0  T
   4    -12.2257177 -0.747952E-03  0.221E-02    1.16       1.4  T
   5    -12.2257381 -0.203596E-04  0.267E-03    1.15      11.3  T
   6    -12.2257380  0.424249E-07  0.184E-03    1.15      16.3  T
   7    -12.2257380 -0.165410E-07  0.108E-03    1.15      28.0  T
   8    -12.2257381 -0.413704E-07  0.335E-04    1.15      90.1  T
   9    -12.2257381  0.144272E-08  0.276E-04    1.15     109.1  T
     SCC iter.                  ...        0 min,  0.002 sec
     gradient                   ...        0 min,  0.000 sec
 * total energy  :   -11.9044625 Eh     change       -0.4795523E-05 Eh
   gradient norm :     0.0003709 Eh/α   predicted    -0.2201345E-05 ( -54.10%)
   displ. norm   :     0.0685253 α      lambda       -0.4432757E-05
   maximum displ.:     0.0351184 α      in ANC's #2, #5, #9, ...

   *** GEOMETRY OPTIMIZATION CONVERGED AFTER 74 ITERATIONS ***

------------------------------------------------------------------------
 total energy gain   :        -0.6694906 Eh     -420.1117 kcal/mol
 total RMSD          :         2.8607744 a0        1.5139 Å
 total power (kW/mol):       -23.7533407 (step)-7336.6353 (real)
------------------------------------------------------------------------

 ANCopt (total)                0 d,  0 h,  0 min,  0.240 sec
 optimizer setup                ...        0 min,  0.000 sec (  0.012%)
 model hessian                  ...        0 min,  0.001 sec (  0.322%)
 ANC generation                 ...        0 min,  0.000 sec (  0.139%)
 coordinate transformation      ...        0 min,  0.000 sec (  0.097%)
 single point calculation       ...        0 min,  0.231 sec ( 96.604%)
 optimization log               ...        0 min,  0.002 sec (  0.854%)
 hessian update                 ...        0 min,  0.002 sec (  0.764%)
 rational function              ...        0 min,  0.002 sec (  0.636%)

================
 final structure:
================
11
 xtb: 6.5.1 (conda-forge)
Be           0.48087105628852        0.52043746792443       -1.02636138973886
C            0.68319510251161        0.57816088005766        0.49820524636585
C            0.86068544434258        0.62948286449703        1.74339075189002
C            1.04651078257834        0.68522117286781        3.04050164886365
C            1.23675962614138        0.75005260987597        4.28455818798919
H            2.78119458384110       -0.27184278803771        5.00723589315313
H            3.41448648373857       -0.70874280010718        5.24346395084596
H            1.32912144583068        2.56618717348083        5.08165074603048
H            1.35394394650501        3.32512771641621        5.34928729609477
H           -0.14011836321662       -0.05642496098730        5.46845085090522
H           -0.72665010857584       -0.39999133598458        5.89961681762067

 Bond Distances (Angstroems)
 ---------------------------
Be1-C2=1.5390        C2-Be1=1.5390        C2-C3=1.2588         C3-C2=1.2588         C3-C4=1.3115         C4-C3=1.3115         
C4-C5=1.2602         C5-C4=1.2602         H6-H7=0.8048         H7-H6=0.8048         H8-H9=0.8051         H9-H8=0.8051         
H10-H11=0.8050       H11-H10=0.8050       
 H  H  Rav=0.8050 sigma=0.0001  Rmin=0.8048  Rmax=0.8051     3
 C  Be Rav=1.5390 sigma=0.0000  Rmin=1.5390  Rmax=1.5390     1
 C  C  Rav=1.2768 sigma=0.0245  Rmin=1.2588  Rmax=1.3115     3

 selected bond angles (degree)
 --------------------
C3-C2-Be1=179.42               C4-C3-C2=179.89                C5-C4-C3=179.25                

 selected dihedral angles (degree)
 ---------------------------------
C4-C3-C2-Be1= 49.14           C5-C4-C3-C2=335.65            

 CMA Distance (Angstroems)
 ---------------------------
R(CMA):  3.7865
           -------------------------------------------------
          |                Final Singlepoint                |
           -------------------------------------------------

          ...................................................
          :                      SETUP                      :
          :.................................................:
          :  # basis functions                  26          :
          :  # atomic orbitals                  26          :
          :  # shells                           16          :
          :  # electrons                        24          :
          :  max. iterations                   250          :
          :  Hamiltonian                  GFN2-xTB          :
          :  restarted?                      false          :
          :  GBSA solvation                  false          :
          :  PC potential                    false          :
          :  electronic temp.          300.0000000     K    :
          :  accuracy                    1.0000000          :
          :  -> integral cutoff          0.2500000E+02      :
          :  -> integral neglect         0.1000000E-07      :
          :  -> SCF convergence          0.1000000E-05 Eh   :
          :  -> wf. convergence          0.1000000E-03 e    :
          :  Broyden damping             0.4000000          :
          ...................................................

 iter      E             dE          RMSdq      gap      omega  full diag
   1    -12.2257381 -0.122257E+02  0.538E-05    1.15       0.0  T
   2    -12.2257381  0.187618E-08  0.208E-04    1.15     144.8  T
   3    -12.2257381 -0.193729E-08  0.268E-05    1.15    1123.5  T

   *** convergence criteria satisfied after 3 iterations ***

         #    Occupation            Energy/Eh            Energy/eV
      -------------------------------------------------------------
         1        2.0000           -0.5920833             -16.1114
       ...           ...                  ...                  ...
         6        2.0000           -0.4316398             -11.7455
         7        2.0000           -0.4253605             -11.5746
         8        2.0000           -0.4188147             -11.3965
         9        2.0000           -0.4176464             -11.3647
        10        2.0000           -0.3461839              -9.4201
        11        2.0000           -0.3455279              -9.4023
        12        2.0000           -0.3292340              -8.9589 (HOMO)
        13                         -0.2870532              -7.8111 (LUMO)
        14                         -0.2556848              -6.9575
        15                         -0.2555985              -6.9552
        16                         -0.1489131              -4.0521
        17                         -0.1485818              -4.0431
       ...                                ...                  ...
        26                          1.4138154              38.4719
      -------------------------------------------------------------
                  HL-Gap            0.0421808 Eh            1.1478 eV
             Fermi-level           -0.3081436 Eh           -8.3850 eV

 SCC (total)                   0 d,  0 h,  0 min,  0.002 sec
 SCC setup                      ...        0 min,  0.000 sec (  1.273%)
 Dispersion                     ...        0 min,  0.000 sec (  3.878%)
 classical contributions        ...        0 min,  0.000 sec (  1.505%)
 integral evaluation            ...        0 min,  0.000 sec (  8.740%)
 iterations                     ...        0 min,  0.001 sec ( 35.075%)
 molecular gradient             ...        0 min,  0.001 sec ( 45.145%)
 printout                       ...        0 min,  0.000 sec (  3.516%)

         :::::::::::::::::::::::::::::::::::::::::::::::::::::
         ::                     SUMMARY                     ::
         :::::::::::::::::::::::::::::::::::::::::::::::::::::
         :: total energy             -11.904462536564 Eh    ::
         :: gradient norm              0.000367059905 Eh/a0 ::
         :: HOMO-LUMO gap              1.147799245209 eV    ::
         ::.................................................::
         :: SCC energy               -12.225738091899 Eh    ::
         :: -> isotropic ES           -0.033699788606 Eh    ::
         :: -> anisotropic ES          0.029931658456 Eh    ::
         :: -> anisotropic XC          0.016467546707 Eh    ::
         :: -> dispersion             -0.005316497473 Eh    ::
         :: repulsion energy           0.321281192630 Eh    ::
         :: add. restraining           0.000000000000 Eh    ::
         :: total charge              -0.000000000000 e     ::
         :::::::::::::::::::::::::::::::::::::::::::::::::::::

           -------------------------------------------------
          |                Property Printout                |
           -------------------------------------------------

    * Orbital Energies and Occupations

         #    Occupation            Energy/Eh            Energy/eV
      -------------------------------------------------------------
         1        2.0000           -0.5920833             -16.1114
         2        2.0000           -0.5637982             -15.3417
         3        2.0000           -0.5234929             -14.2450
         4        2.0000           -0.4499632             -12.2441
         5        2.0000           -0.4325942             -11.7715
         6        2.0000           -0.4316398             -11.7455
         7        2.0000           -0.4253605             -11.5746
         8        2.0000           -0.4188147             -11.3965
         9        2.0000           -0.4176464             -11.3647
        10        2.0000           -0.3461839              -9.4201
        11        2.0000           -0.3455279              -9.4023
        12        2.0000           -0.3292340              -8.9589 (HOMO)
        13                         -0.2870532              -7.8111 (LUMO)
        14                         -0.2556848              -6.9575
        15                         -0.2555985              -6.9552
        16                         -0.1489131              -4.0521
        17                         -0.1485818              -4.0431
        18                         -0.0255756              -0.6959
        19                         -0.0248489              -0.6762
        20                          0.1600732               4.3558
        21                          0.2009574               5.4683
        22                          0.2022520               5.5036
        23                          0.2081228               5.6633
       ...                                ...                  ...
        26                          1.4138154              38.4719
      -------------------------------------------------------------
                  HL-Gap            0.0421808 Eh            1.1478 eV
             Fermi-level           -0.3081436 Eh           -8.3850 eV

     #   Z          covCN         q      C6AA      α(0)
     1   4 Be       0.848     0.505    61.985    23.599
     2   6 C        1.825    -0.270    39.372    10.138
     3   6 C        1.967     0.042    29.996     8.845
     4   6 C        1.963    -0.045    32.291     9.177
     5   6 C        0.982    -0.193    42.379    10.935
     6   1 H        0.713     0.030     2.732     2.622
     7   1 H        0.713    -0.043     4.157     3.234
     8   1 H        0.712     0.030     2.734     2.623
     9   1 H        0.712    -0.043     4.166     3.238
    10   1 H        0.712     0.031     2.731     2.621
    11   1 H        0.712    -0.043     4.164     3.237

 Mol. C6AA /au·bohr⁶  :       1738.304449
 Mol. C8AA /au·bohr⁸  :      45096.714778
 Mol. α(0) /au        :         80.268203


Wiberg/Mayer (AO) data.
largest (>0.10) Wiberg bond orders for each atom

 ---------------------------------------------------------------------------
     #   Z sym  total        # sym  WBO       # sym  WBO       # sym  WBO
 ---------------------------------------------------------------------------
     1   4 Be   1.859 --     2 C    1.562     3 C    0.174     4 C    0.123
     2   6 C    3.937 --     3 C    2.112     1 Be   1.562     5 C    0.228
     3   6 C    3.952 --     2 C    2.112     4 C    1.535     1 Be   0.174
                             5 C    0.111
     4   6 C    3.961 --     5 C    2.213     3 C    1.535     1 Be   0.123
     5   6 C    2.823 --     4 C    2.213     2 C    0.228     3 C    0.111
     6   1 H    0.999 --     7 H    0.933
     7   1 H    0.983 --     6 H    0.933
     8   1 H    0.999 --     9 H    0.933
     9   1 H    0.983 --     8 H    0.933
    10   1 H    0.999 --    11 H    0.933
    11   1 H    0.983 --    10 H    0.933
 ---------------------------------------------------------------------------

Topologies differ in total number of bonds
Writing topology from bond orders to xtbtopo.mol

molecular dipole:
                 x           y           z       tot (Debye)
 q only:       -0.463      -0.134      -3.368
   full:       -0.727      -0.214      -5.257      13.501
molecular quadrupole (traceless):
                xx          xy          yy          xz          yz          zz
 q only:        7.016      -1.025       8.444      -9.306      -6.305     -15.460
  q+dip:        5.405      -1.696       7.753     -12.390      -9.321     -13.158
   full:        7.789      -1.668      10.091     -13.374      -9.598     -17.880

           -------------------------------------------------
          |                Geometry Summary                 |
           -------------------------------------------------

      molecular mass/u    :       63.1027712
   center of mass at/Å    :        0.9250973       0.6485191       2.1862279
  moments of inertia/u·Å² :        0.2852185E+02   0.2698848E+03   0.2724128E+03
rotational constants/cm⁻¹ :        0.5910428E+00   0.6246232E-01   0.6188268E-01

 * 4 selected distances

     #   Z          #   Z                                           value/Å
     1   4 Be       2   6 C                                       1.5390162 (max)
     2   6 C        3   6 C                                       1.2588185 (min)
     3   6 C        4   6 C                                       1.3115391
     4   6 C        5   6 C                                       1.2601884

 * 2 distinct bonds (by element types)

   Z      Z             #   av. dist./Å        max./Å        min./Å
   4 Be   6 C           1     1.5390162     1.5390162     1.5390162
   6 C    6 C           3     1.2768487     1.3115391     1.2588185


optimized geometry written to: xtbopt.xyz


           -------------------------------------------------
          | TOTAL ENERGY              -11.904462536564 Eh   |
          | GRADIENT NORM               0.000367059905 Eh/α |
          | HOMO-LUMO GAP               1.147799245209 eV   |
           -------------------------------------------------
########################################################################
[WARNING] Runtime exception occurred
-3- restart_readRestart: Dimension missmatch in restart file.
-2- restart_readRestart: Multiplicity missmatch in restart file.
-1- restart_readRestart: Number of electron missmatch in restart file.
########################################################################

------------------------------------------------------------------------
Note: The following floating-point exceptions are signalling: IEEE_UNDERFLOW_FLAG
normal termination of xtb
 * finished run on 2025/06/07 at 03:27:56.638     
------------------------------------------------------------------------
 total:
 * wall-time:     0 d,  0 h,  0 min,  0.277 sec
 *  cpu-time:     0 d,  0 h,  0 min,  3.821 sec
 * ratio c/w:    13.774 speedup
 SCF:
 * wall-time:     0 d,  0 h,  0 min,  0.033 sec
 *  cpu-time:     0 d,  0 h,  0 min,  0.415 sec
 * ratio c/w:    12.707 speedup
 ANC optimizer:
 * wall-time:     0 d,  0 h,  0 min,  0.242 sec
 *  cpu-time:     0 d,  0 h,  0 min,  3.371 sec
 * ratio c/w:    13.944 speedup

