      -----------------------------------------------------------      
     |                   =====================                   |     
     |                           x T B                           |     
     |                   =====================                   |     
     |                         S. Grimme                         |     
     |          Mulliken Center for Theoretical Chemistry        |     
     |                    University of Bonn                     |     
      -----------------------------------------------------------      

   * xtb version 6.5.1 (conda-forge) compiled by 'runner@Mac-1657629245115.local' on 2022-07-12

   xtb is free software: you can redistribute it and/or modify it under
   the terms of the GNU Lesser General Public License as published by
   the Free Software Foundation, either version 3 of the License, or
   (at your option) any later version.
   
   xtb is distributed in the hope that it will be useful,
   but WITHOUT ANY WARRANTY; without even the implied warranty of
   MERCHANTABILITY or FITNESS FOR A PARTICULAR PURPOSE.  See the
   GNU Lesser General Public License for more details.
   
   Cite this work as:
   * C. Bannwarth, E. Caldeweyher, S. Ehlert, A. Hansen, P. Pracht,
     J. Seibert, S. Spicher, S. Grimme, WIREs Comput. Mol. Sci., 2020, 11,
     e01493. DOI: 10.1002/wcms.1493
   
   for GFN2-xTB:
   * C. Bannwarth, S. Ehlert and S. Grimme., J. Chem. Theory Comput., 2019,
     15, 1652-1671. DOI: 10.1021/acs.jctc.8b01176
   for GFN1-xTB:
   * S. Grimme, C. Bannwarth, P. Shushkov, J. Chem. Theory Comput., 2017,
     13, 1989-2009. DOI: 10.1021/acs.jctc.7b00118
   for GFN0-xTB:
   * P. Pracht, E. Caldeweyher, S. Ehlert, S. Grimme, ChemRxiv, 2019, preprint.
     DOI: 10.26434/chemrxiv.8326202.v1
   for GFN-FF:
   * S. Spicher and S. Grimme, Angew. Chem. Int. Ed., 2020, 59, 15665-15673.
     DOI: 10.1002/anie.202004239
   
   for ALPB and GBSA implicit solvation:
   * S. Ehlert, M. Stahn, S. Spicher, S. Grimme, J. Chem. Theory Comput.,
     2021, 17, 4250-4261. DOI: 10.1021/acs.jctc.1c00471
   
   for DFT-D4:
   * E. Caldeweyher, C. Bannwarth and S. Grimme, J. Chem. Phys., 2017,
     147, 034112. DOI: 10.1063/1.4993215
   * E. Caldeweyher, S. Ehlert, A. Hansen, H. Neugebauer, S. Spicher,
     C. Bannwarth and S. Grimme, J. Chem. Phys., 2019, 150, 154122.
     DOI: 10.1063/1.5090222
   * E. Caldeweyher, J.-M. Mewes, S. Ehlert and S. Grimme, Phys. Chem. Chem. Phys.
     2020, 22, 8499-8512. DOI: 10.1039/D0CP00502A
   
   for sTDA-xTB:
   * S. Grimme and C. Bannwarth, J. Chem. Phys., 2016, 145, 054103.
     DOI: 10.1063/1.4959605
   
   in the mass-spec context:
   * V. Asgeirsson, C. Bauer and S. Grimme, Chem. Sci., 2017, 8, 4879.
     DOI: 10.1039/c7sc00601b
   * J. Koopman and S. Grimme, ACS Omega 2019, 4, 12, 15120-15133.
     DOI: 10.1021/acsomega.9b02011
   
   for metadynamics refer to:
   * S. Grimme, J. Chem. Theory Comput., 2019, 155, 2847-2862
     DOI: 10.1021/acs.jctc.9b00143
   
   for SPH calculations refer to:
   * S. Spicher and S. Grimme, J. Chem. Theory Comput., 2021, 17, 1701-1714
     DOI: 10.1021/acs.jctc.0c01306
   
   with help from (in alphabetical order)
   P. Atkinson, C. Bannwarth, F. Bohle, G. Brandenburg, E. Caldeweyher
   M. Checinski, S. Dohm, S. Ehlert, S. Ehrlich, I. Gerasimov, C. Hölzer
   A. Katbashev, J. Koopman, C. Lavigne, S. Lehtola, F. März, M. Müller,
   F. Musil, H. Neugebauer, J. Pisarek, C. Plett, P. Pracht, F. Pultar,
   J. Seibert, P. Shushkov, S. Spicher, M. Stahn, M. Steiner, T. Strunk,
   J. Stückrath, T. Rose, and J. Unsleber
   
 * started run on 2025/06/07 at 03:27:55.438     

           -------------------------------------------------
          |                Calculation Setup                |
           -------------------------------------------------

          program call               : xtb BeC4H3.xyz --gfn 2 --opt
          coordinate file            : BeC4H3.xyz
          omp threads                :                    16

   ID    Z sym.   atoms
    1    4 Be     1
    2    6 C      2-5
    3    1 H      6-8

molecular fragmentation (1/2 indicates fragments):
12222222
# atoms in fragment 1/2:     1     7
 fragment masses (1/2) :        9.01       51.07
CMA distance (Bohr)    :   5.398
constraining FC (au)   :  0.0500

           -------------------------------------------------
          |                 G F N 2 - x T B                 |
           -------------------------------------------------

        Reference                      10.1021/acs.jctc.8b01176
      * Hamiltonian:
        H0-scaling (s, p, d)           1.850000    2.230000    2.230000
        zeta-weighting                 0.500000
      * Dispersion:
        s8                             2.700000
        a1                             0.520000
        a2                             5.000000
        s9                             5.000000
      * Repulsion:
        kExp                           1.500000    1.000000
        rExp                           1.000000
      * Coulomb:
        alpha                          2.000000
        third order                    shell-resolved
        anisotropic                    true
        a3                             3.000000
        a5                             4.000000
        cn-shift                       1.200000
        cn-exp                         4.000000
        max-rad                        5.000000


          ...................................................
          :                      SETUP                      :
          :.................................................:
          :  # basis functions                  23          :
          :  # atomic orbitals                  23          :
          :  # shells                           13          :
          :  # electrons                        21          :
          :  max. iterations                   250          :
          :  Hamiltonian                  GFN2-xTB          :
          :  restarted?                      false          :
          :  GBSA solvation                  false          :
          :  PC potential                    false          :
          :  electronic temp.          300.0000000     K    :
          :  accuracy                    1.0000000          :
          :  -> integral cutoff          0.2500000E+02      :
          :  -> integral neglect         0.1000000E-07      :
          :  -> SCF convergence          0.1000000E-05 Eh   :
          :  -> wf. convergence          0.1000000E-03 e    :
          :  Broyden damping             0.4000000          :
          ...................................................

 iter      E             dE          RMSdq      gap      omega  full diag
   1     11.6522211  0.116522E+02  0.261E+01    0.39       0.0  T
   2     -7.7180801 -0.193703E+02  0.138E+01    0.26       1.0  T
   3     -6.4344927  0.128359E+01  0.149E+01    0.80       1.0  T
   4     -7.5316101 -0.109712E+01  0.111E+01    0.38       1.0  T
   5     -6.9960102  0.535600E+00  0.122E+01    0.43       1.0  T
   6     -8.2535386 -0.125753E+01  0.837E+00    0.54       1.0  T
   7     -8.7679741 -0.514435E+00  0.672E+00    0.19       1.0  T
   8     -8.7011110  0.668631E-01  0.661E+00    0.21       1.0  T
   9     14.0707055  0.227718E+02  0.256E+01    1.11       1.0  T
  10      6.3672253 -0.770348E+01  0.201E+01    0.50       1.0  T
  11     -9.4722571 -0.158395E+02  0.789E+00    0.44       1.0  T
  12     -9.7370626 -0.264805E+00  0.581E+00    0.38       1.0  T
  13     -9.5389637  0.198099E+00  0.738E+00    0.44       1.0  T
  14     -9.6393906 -0.100427E+00  0.653E+00    0.41       1.0  T
  15     -2.9078139  0.673158E+01  0.130E+01    0.53       1.0  T
  16     -2.8450639  0.627500E-01  0.131E+01    0.53       1.0  T
  17     -1.4209365  0.142413E+01  0.142E+01    0.62       1.0  T
  18      8.4115464  0.983248E+01  0.225E+01    0.50       1.0  T
  19     10.2582574  0.184671E+01  0.242E+01    0.43       1.0  T
  20      9.9850729 -0.273185E+00  0.240E+01    0.44       1.0  T
  21     -7.4498577 -0.174349E+02  0.105E+01    0.27       1.0  T
  22     -9.7142760 -0.226442E+01  0.377E+00    0.40       1.0  T
  23     -9.6840238  0.302522E-01  0.389E+00    0.41       1.0  T
  24     -9.7071972 -0.231734E-01  0.377E+00    0.40       1.0  T
  25     -9.6923447  0.148526E-01  0.398E+00    0.39       1.0  T
  26     -9.7247946 -0.324499E-01  0.339E+00    0.39       1.0  T
  27     -9.6721405  0.526541E-01  0.320E+00    0.38       1.0  T
  28     -9.4772033  0.194937E+00  0.344E+00    0.28       1.0  T
  29     -9.4231892  0.540141E-01  0.361E+00    0.26       1.0  T
  30     -9.6288553 -0.205666E+00  0.281E+00    0.33       1.0  T
  31     -9.4619315  0.166924E+00  0.346E+00    0.27       1.0  T
  32     -9.3664221  0.955094E-01  0.403E+00    0.20       1.0  T
  33     -9.6052807 -0.238859E+00  0.395E+00    0.25       1.0  T
  34     -9.6251751 -0.198944E-01  0.420E+00    0.24       1.0  T
  35     -9.6155681  0.960696E-02  0.437E+00    0.24       1.0  T
  36     -9.6357547 -0.201866E-01  0.453E+00    0.25       1.0  T
  37     -9.5010066  0.134748E+00  0.469E+00    0.23       1.0  T
  38     -9.4172664  0.837402E-01  0.494E+00    0.21       1.0  T
  39     -9.3538377  0.634287E-01  0.514E+00    0.20       1.0  T
  40     -9.4350061 -0.811684E-01  0.484E+00    0.21       1.0  T
  41     -9.4790627 -0.440566E-01  0.462E+00    0.21       1.0  T
  42     -9.4819212 -0.285847E-02  0.462E+00    0.21       1.0  T
  43     -9.5031263 -0.212051E-01  0.417E+00    0.23       1.0  T
  44     -9.5688906 -0.657644E-01  0.337E+00    0.25       1.0  T
  45     -9.7918874 -0.222997E+00  0.224E+00    0.34       1.0  T
  46     -9.7971469 -0.525950E-02  0.226E+00    0.35       1.0  T
  47     -9.7854784  0.116685E-01  0.218E+00    0.35       1.0  T
  48     -9.7897655 -0.428704E-02  0.226E+00    0.37       1.0  T
  49     -9.7904792 -0.713745E-03  0.245E+00    0.37       1.0  T
  50     -9.7905421 -0.629120E-04  0.243E+00    0.37       1.0  T
  51     -9.6695477  0.120994E+00  0.453E+00    0.32       1.0  T
  52     -9.7846829 -0.115135E+00  0.268E+00    0.37       1.0  T
  53     -9.6610767  0.123606E+00  0.465E+00    0.32       1.0  T
  54     -9.7076549 -0.465783E-01  0.407E+00    0.35       1.0  T
  55     -9.7049065  0.274840E-02  0.413E+00    0.35       1.0  T
  56     -9.7210559 -0.161494E-01  0.387E+00    0.35       1.0  T
  57     -9.7701984 -0.491425E-01  0.289E+00    0.38       1.0  T
  58     -9.7759418 -0.574343E-02  0.263E+00    0.40       1.0  T
  59     -9.7848585 -0.891668E-02  0.221E+00    0.41       1.0  T
  60     -9.7810913  0.376720E-02  0.222E+00    0.42       1.0  T
  61     -9.7767382  0.435308E-02  0.233E+00    0.42       1.0  T
  62     -9.7841280 -0.738983E-02  0.200E+00    0.41       1.0  T
  63     -9.7938821 -0.975404E-02  0.138E+00    0.39       1.0  T
  64     -9.7983074 -0.442529E-02  0.121E+00    0.39       1.0  T
  65     -9.7943615  0.394586E-02  0.121E+00    0.38       1.0  T
  66     -9.7994360 -0.507449E-02  0.996E-01    0.39       1.0  T
  67     -9.8000835 -0.647541E-03  0.887E-01    0.40       1.0  T
  68     -9.7991072  0.976308E-03  0.734E-01    0.42       1.0  T
  69     -9.7997510 -0.643793E-03  0.661E-01    0.42       1.0  T
  70     -9.8003706 -0.619559E-03  0.603E-01    0.43       1.0  T
  71     -9.7946313  0.573929E-02  0.755E-01    0.45       1.0  T
  72     -9.7941812  0.450113E-03  0.794E-01    0.46       1.0  T
  73     -9.7897158  0.446540E-02  0.886E-01    0.46       1.0  T
  74     -9.7910427 -0.132694E-02  0.856E-01    0.46       1.0  T
  75     -9.7921202 -0.107743E-02  0.792E-01    0.46       1.0  T
  76     -9.7985444 -0.642430E-02  0.578E-01    0.45       1.0  T
  77     -9.8003567 -0.181230E-02  0.459E-01    0.44       1.0  T
  78     -9.8023974 -0.204065E-02  0.394E-01    0.43       1.0  T
  79     -9.8026646 -0.267170E-03  0.394E-01    0.42       1.0  T
  80     -9.8026266  0.379312E-04  0.400E-01    0.41       1.0  T
  81     -9.8025283  0.982848E-04  0.405E-01    0.41       1.0  T
  82     -9.8024235  0.104816E-03  0.409E-01    0.41       1.0  T
  83     -9.8023132  0.110303E-03  0.420E-01    0.41       1.0  T
  84     -9.8022488  0.644672E-04  0.428E-01    0.41       1.0  T
  85     -9.8022327  0.160747E-04  0.429E-01    0.41       1.0  T
  86     -9.8022319  0.819778E-06  0.429E-01    0.41       1.0  T
  87     -9.8022318  0.529401E-07  0.429E-01    0.41       1.0  T
  88     -9.8022309  0.960230E-06  0.428E-01    0.41       1.0  T
  89     -9.8022142  0.166285E-04  0.420E-01    0.41       1.0  T
  90     -9.8021952  0.190610E-04  0.398E-01    0.41       1.0  T
  91     -9.8022217 -0.265519E-04  0.360E-01    0.40       1.0  T
  92     -9.8022715 -0.497470E-04  0.325E-01    0.40       1.0  T
  93     -9.8023285 -0.570630E-04  0.295E-01    0.40       1.0  T
  94     -9.8023943 -0.657512E-04  0.269E-01    0.40       1.0  T
  95     -9.8024686 -0.743395E-04  0.243E-01    0.40       1.0  T
  96     -9.8025499 -0.813282E-04  0.214E-01    0.40       1.0  T
  97     -9.8026269 -0.769225E-04  0.183E-01    0.41       1.0  T
  98     -9.8026858 -0.589739E-04  0.153E-01    0.41       1.0  T
  99     -9.8027242 -0.383673E-04  0.126E-01    0.41       1.0  T
 100     -9.8027470 -0.227853E-04  0.102E-01    0.41       1.0  T
 101     -9.8027599 -0.128775E-04  0.795E-02    0.41       1.0  T
 102     -9.8027665 -0.665658E-05  0.577E-02    0.41       1.0  T
 103     -9.8027692 -0.264930E-05  0.373E-02    0.41       1.0  T
 104     -9.8027697 -0.492756E-06  0.206E-02    0.41       1.7  T
 105     -9.8027694  0.250495E-06  0.727E-03    0.41       4.9  T
 106     -9.8027693  0.719920E-07  0.566E-03    0.41       6.3  T
 107     -9.8027696 -0.273923E-06  0.372E-03    0.41       9.5  T
 108     -9.8027697 -0.116765E-06  0.154E-03    0.41      23.0  T
 109     -9.8027697 -0.136967E-08  0.122E-03    0.41      29.0  T
 110     -9.8027697 -0.316739E-08  0.929E-04    0.41      38.1  T
 111     -9.8027697 -0.153526E-08  0.280E-04    0.41     126.2  T

   *** convergence criteria satisfied after 111 iterations ***

         #    Occupation            Energy/Eh            Energy/eV
      -------------------------------------------------------------
         1        2.0000           -0.6390603             -17.3897
       ...           ...                  ...                  ...
         5        2.0000           -0.4708862             -12.8135
         6        2.0000           -0.3768482             -10.2546
         7        2.0000           -0.3604416              -9.8081
         8        2.0000           -0.3535977              -9.6219
         9        2.0000           -0.3472136              -9.4482
        10        1.8855           -0.3183522              -8.6628
        11        1.1141           -0.3144650              -8.5570 (HOMO)
        12        0.0004           -0.2994774              -8.1492 (LUMO)
        13        0.0000           -0.2921144              -7.9488
        14                         -0.2635422              -7.1713
        15                         -0.2386089              -6.4929
        16                         -0.2305462              -6.2735
       ...                                ...                  ...
        23                          0.1305218               3.5517
      -------------------------------------------------------------
                  HL-Gap            0.0149875 Eh            0.4078 eV
             Fermi-level           -0.3116861 Eh           -8.4814 eV

 SCC (total)                   0 d,  0 h,  0 min,  0.036 sec
 SCC setup                      ...        0 min,  0.000 sec (  0.262%)
 Dispersion                     ...        0 min,  0.000 sec (  0.309%)
 classical contributions        ...        0 min,  0.000 sec (  0.264%)
 integral evaluation            ...        0 min,  0.000 sec (  0.412%)
 iterations                     ...        0 min,  0.035 sec ( 97.537%)
 molecular gradient             ...        0 min,  0.000 sec (  1.098%)
 printout                       ...        0 min,  0.000 sec (  0.089%)

         :::::::::::::::::::::::::::::::::::::::::::::::::::::
         ::                     SUMMARY                     ::
         :::::::::::::::::::::::::::::::::::::::::::::::::::::
         :: total energy              -9.760782848036 Eh    ::
         :: gradient norm              0.293360521310 Eh/a0 ::
         :: HOMO-LUMO gap              0.407831589920 eV    ::
         ::.................................................::
         :: SCC energy                -9.802769744478 Eh    ::
         :: -> isotropic ES           -0.065946079820 Eh    ::
         :: -> anisotropic ES          0.010503041535 Eh    ::
         :: -> anisotropic XC          0.000790469611 Eh    ::
         :: -> dispersion             -0.005997080937 Eh    ::
         :: repulsion energy           0.041981121211 Eh    ::
         :: add. restraining           0.000000000000 Eh    ::
         :: total charge               0.000000000133 e     ::
         :::::::::::::::::::::::::::::::::::::::::::::::::::::

      ----------------------------------------------------------- 
     |                   =====================                   |
     |                        A N C O P T                        |
     |                   =====================                   |
     |               Approximate Normal Coordinate               |
     |                Rational Function Optimizer                |
      ----------------------------------------------------------- 

          ...................................................
          :                      SETUP                      :
          :.................................................:
          :   optimization level            normal          :
          :   max. optcycles                   200          :
          :   ANC micro-cycles                  20          :
          :   degrees of freedom                18          :
          :.................................................:
          :   RF solver                   davidson          :
          :   write xtbopt.log                true          :
          :   linear?                        false          :
          :   energy convergence         0.5000000E-05 Eh   :
          :   grad. convergence          0.1000000E-02 Eh/α :
          :   maximium RF displ.         1.0000000          :
          :   Hlow (freq-cutoff)         0.1000000E-01      :
          :   Hmax (freq-cutoff)         5.0000000          :
          :   S6 in model hess.         20.0000000          :
          ...................................................

generating ANC from model Hessian ...
Using Lindh-Hessian (1995)
 Shifting diagonal of input Hessian by    9.9588515284466696E-003
 Lowest  eigenvalues of input Hessian
    0.000000    0.000000    0.000000    0.000000    0.000000    0.000000
    0.010000    0.010384    0.010815    0.011382    0.011526    0.012199
    0.013174    0.014705    0.049975    0.053441    0.124358    0.165634
 Highest eigenvalues
    0.205331    0.236132    0.257222    0.267826    0.302766    0.436354


........................................................................
.............................. CYCLE    1 ..............................
........................................................................
   1     -9.8027697 -0.980277E+01  0.118E-04    0.41       0.0  T
   2     -9.8027697  0.550493E-07  0.193E-03    0.41      18.4  T
   3     -9.8027697 -0.296932E-07  0.134E-03    0.41      26.4  T
   4     -9.8027697 -0.354445E-08  0.126E-03    0.41      28.1  T
   5     -9.8027697 -0.121714E-07  0.843E-04    0.41      41.9  T
   6     -9.8027697 -0.902070E-08  0.282E-04    0.41     125.3  T
     SCC iter.                  ...        0 min,  0.001 sec
     gradient                   ...        0 min,  0.000 sec
 * total energy  :    -9.7607828 Eh     change        0.8444658E-09 Eh
   gradient norm :     0.2932182 Eh/α   predicted     0.0000000E+00 (-100.00%)
   displ. norm   :     0.7893859 α      lambda       -0.2238521E+00
   maximum displ.:     0.4882893 α      in ANC's #10, #13, #9, ...

........................................................................
.............................. CYCLE    2 ..............................
........................................................................
   1     -9.9810014 -0.998100E+01  0.296E+00    0.63       0.0  T
   2     -9.8383404  0.142661E+00  0.343E+00    0.34       1.0  T
   3     -9.4040627  0.434278E+00  0.596E+00    0.68       1.0  T
   4     -9.8802520 -0.476189E+00  0.270E+00    0.54       1.0  T
   5     -8.9294273  0.950825E+00  0.699E+00    0.66       1.0  T
   6     -9.9865840 -0.105716E+01  0.157E+00    0.61       1.0  T
   7     -9.8699338  0.116650E+00  0.297E+00    0.70       1.0  T
   8     -9.8584741  0.114597E-01  0.299E+00    0.70       1.0  T
   9     -9.8755742 -0.171001E-01  0.286E+00    0.69       1.0  T
  10     -9.9896383 -0.114064E+00  0.888E-01    0.58       1.0  T
  11     -9.9792756  0.103627E-01  0.106E+00    0.60       1.0  T
  12     -9.9993899 -0.201143E-01  0.416E-01    0.57       1.0  T
  13    -10.0017938 -0.240391E-02  0.245E-01    0.56       1.0  T
  14    -10.0022272 -0.433425E-03  0.158E-01    0.56       1.0  T
  15    -10.0023498 -0.122592E-03  0.118E-01    0.56       1.0  T
  16    -10.0025707 -0.220824E-03  0.108E-02    0.56       3.3  T
  17    -10.0025698  0.812004E-06  0.177E-02    0.56       2.0  T
  18    -10.0025710 -0.117649E-05  0.492E-03    0.56       7.2  T
  19    -10.0025709  0.138863E-06  0.413E-03    0.56       8.6  T
  20    -10.0025711 -0.241345E-06  0.222E-03    0.56      16.0  T
  21    -10.0025712 -0.610531E-07  0.782E-04    0.56      45.2  T
  22    -10.0025712 -0.137364E-09  0.431E-04    0.56      81.9  T
     SCC iter.                  ...        0 min,  0.003 sec
     gradient                   ...        0 min,  0.001 sec
 * total energy  :    -9.9722395 Eh     change       -0.2114566E+00 Eh
   gradient norm :     0.2914142 Eh/α   predicted    -0.1816705E+00 ( -14.09%)
   displ. norm   :     0.9706671 α      lambda       -0.2752113E+00
   maximum displ.:     0.7574744 α      in ANC's #13, #10, #17, ...

........................................................................
.............................. CYCLE    3 ..............................
........................................................................
   1    -10.2853999 -0.102854E+02  0.386E+00    1.23       0.0  T
   2     -9.6447107  0.640689E+00  0.563E+00    0.20       1.0  T
   3     -8.7345595  0.910151E+00  0.911E+00    0.62       1.0  T
   4    -10.1093136 -0.137475E+01  0.423E+00    1.53       1.0  T
   5    -10.0111497  0.981639E-01  0.455E+00    1.56       1.0  T
   6    -10.1209068 -0.109757E+00  0.360E+00    1.52       1.0  T
   7    -10.2971624 -0.176256E+00  0.161E+00    1.20       1.0  T
   8    -10.3159388 -0.187765E-01  0.847E-01    1.13       1.0  T
   9    -10.3176814 -0.174257E-02  0.685E-01    1.10       1.0  T
  10    -10.3178579 -0.176489E-03  0.598E-01    1.11       1.0  T
  11    -10.3184736 -0.615673E-03  0.441E-01    1.09       1.0  T
  12    -10.3191125 -0.638906E-03  0.209E-01    1.03       1.0  T
  13    -10.3190106  0.101881E-03  0.301E-01    1.05       1.0  T
  14    -10.3191342 -0.123642E-03  0.179E-01    1.04       1.0  T
  15    -10.3191646 -0.303665E-04  0.595E-02    1.03       1.0  T
  16    -10.3191674 -0.282061E-05  0.305E-02    1.03       1.2  T
  17    -10.3191684 -0.985197E-06  0.218E-02    1.03       1.6  T
  18    -10.3191689 -0.530837E-06  0.150E-02    1.03       2.4  T
  19    -10.3191689  0.467673E-07  0.614E-03    1.03       5.8  T
  20    -10.3191690 -0.113427E-06  0.406E-03    1.03       8.7  T
  21    -10.3191691 -0.570963E-07  0.336E-03    1.03      10.5  T
  22    -10.3191691 -0.583035E-07  0.242E-03    1.03      14.6  T
  23    -10.3191692 -0.516635E-07  0.132E-03    1.03      26.8  T
  24    -10.3191692 -0.199878E-07  0.860E-05    1.03     411.2  T
  25    -10.3191692 -0.429967E-10  0.284E-05    1.03    1245.1  T
     SCC iter.                  ...        0 min,  0.004 sec
     gradient                   ...        0 min,  0.000 sec
 * total energy  :   -10.1987354 Eh     change       -0.2264959E+00 Eh
   gradient norm :     0.1710327 Eh/α   predicted    -0.2672570E+00 (  18.00%)
   displ. norm   :     0.7554282 α      lambda       -0.1148772E+00
   maximum displ.:     0.3683792 α      in ANC's #9, #13, #8, ...

........................................................................
.............................. CYCLE    4 ..............................
........................................................................
   1    -10.4526752 -0.104527E+02  0.296E+00    0.62       0.0  T
   2    -10.4222599  0.304153E-01  0.282E+00    0.84       1.0  T
   3    -10.4326846 -0.104247E-01  0.240E+00    0.54       1.0  T
   4    -10.0322117  0.400473E+00  0.484E+00    1.17       1.0  T
   5    -10.4198501 -0.387638E+00  0.187E+00    0.53       1.0  T
   6    -10.4503551 -0.305050E-01  0.100E+00    0.60       1.0  T
   7    -10.4623601 -0.120050E-01  0.366E-01    0.67       1.0  T
   8    -10.4634519 -0.109179E-02  0.230E-01    0.70       1.0  T
   9    -10.4634616 -0.969673E-05  0.131E-01    0.73       1.0  T
  10    -10.4637073 -0.245713E-03  0.429E-02    0.72       1.0  T
  11    -10.4637135 -0.624550E-05  0.259E-02    0.71       1.4  T
  12    -10.4636889  0.246495E-04  0.436E-02    0.71       1.0  T
  13    -10.4637132 -0.242756E-04  0.958E-03    0.71       3.7  T
  14    -10.4637140 -0.794386E-06  0.391E-03    0.72       9.0  T
  15    -10.4637141 -0.991740E-07  0.260E-03    0.72      13.6  T
  16    -10.4637141 -0.845330E-07  0.744E-04    0.72      47.5  T
  17    -10.4637142 -0.807161E-08  0.192E-04    0.72     184.3  T
     SCC iter.                  ...        0 min,  0.003 sec
     gradient                   ...        0 min,  0.001 sec
 * total energy  :   -10.2879400 Eh     change       -0.8920459E-01 Eh
   gradient norm :     0.2082303 Eh/α   predicted    -0.9021719E-01 (   1.14%)
   displ. norm   :     0.8459667 α      lambda       -0.1358206E+00
   maximum displ.:     0.3458530 α      in ANC's #9, #18, #14, ...

........................................................................
.............................. CYCLE    5 ..............................
........................................................................
   1    -10.6060465 -0.106060E+02  0.297E+00    0.64       0.0  T
   2    -10.5023013  0.103745E+00  0.271E+00    1.12       1.0  T
   3    -10.1091023  0.393199E+00  0.609E+00    1.28       1.0  T
   4    -10.5377498 -0.428647E+00  0.285E+00    0.60       1.0  T
   5    -10.5646010 -0.268512E-01  0.185E+00    0.56       1.0  T
   6    -10.6127068 -0.481058E-01  0.585E-01    0.63       1.0  T
   7    -10.6140400 -0.133320E-02  0.581E-01    0.70       1.0  T
   8    -10.6127492  0.129081E-02  0.523E-01    0.72       1.0  T
   9    -10.6153013 -0.255214E-02  0.314E-01    0.67       1.0  T
  10    -10.6151094  0.191930E-03  0.356E-01    0.66       1.0  T
  11    -10.6147718  0.337631E-03  0.358E-01    0.65       1.0  T
  12    -10.6148854 -0.113655E-03  0.321E-01    0.66       1.0  T
  13    -10.6152744 -0.389035E-03  0.116E-01    0.67       1.0  T
  14    -10.6153560 -0.815668E-04  0.313E-02    0.68       1.1  T
  15    -10.6153643 -0.832450E-05  0.745E-03    0.68       4.7  T
  16    -10.6153645 -0.152739E-06  0.473E-03    0.68       7.5  T
  17    -10.6153645 -0.341580E-07  0.337E-03    0.68      10.5  T
  18    -10.6153645 -0.271920E-07  0.700E-04    0.68      50.5  T
  19    -10.6153646 -0.111318E-08  0.374E-04    0.68      94.5  T
     SCC iter.                  ...        0 min,  0.003 sec
     gradient                   ...        0 min,  0.000 sec
 * total energy  :   -10.3788788 Eh     change       -0.9093885E-01 Eh
   gradient norm :     0.1863185 Eh/α   predicted    -0.1165109E+00 (  28.12%)
   displ. norm   :     0.8145531 α      lambda       -0.1158308E+00
   maximum displ.:     0.3190622 α      in ANC's #4, #18, #17, ...

........................................................................
.............................. CYCLE    6 ..............................
........................................................................
   1    -10.5658396 -0.105658E+02  0.308E+00    0.71       0.0  T
   2     -7.8738837  0.269196E+01  0.968E+00    0.92       1.0  T
   3    -10.2177126 -0.234383E+01  0.467E+00    1.46       1.0  T
   4    -10.2559612 -0.382486E-01  0.404E+00    1.32       1.0  T
   5    -10.5070859 -0.251125E+00  0.237E+00    0.80       1.0  T
   6    -10.4987572  0.832872E-02  0.219E+00    0.82       1.0  T
   7    -10.5183274 -0.195703E-01  0.198E+00    0.79       1.0  T
   8    -10.5687627 -0.504353E-01  0.127E+00    0.73       1.0  T
   9    -10.5938084 -0.250457E-01  0.766E-01    0.70       1.0  T
  10    -10.5933628  0.445572E-03  0.780E-01    0.70       1.0  T
  11    -10.6050757 -0.117129E-01  0.173E-01    0.69       1.0  T
  12    -10.6038486  0.122711E-02  0.296E-01    0.69       1.0  T
  13    -10.6043849 -0.536225E-03  0.198E-01    0.69       1.0  T
  14    -10.6051088 -0.723931E-03  0.545E-02    0.69       1.0  T
  15    -10.6051027  0.604869E-05  0.339E-02    0.69       1.0  T
  16    -10.6051114 -0.868949E-05  0.842E-03    0.69       4.2  T
  17    -10.6051120 -0.541914E-06  0.308E-03    0.69      11.5  T
  18    -10.6051120 -0.369658E-07  0.133E-03    0.69      26.6  T
  19    -10.6051120 -0.306324E-08  0.251E-04    0.69     140.7  T
  20    -10.6051120 -0.471983E-09  0.636E-05    0.69     555.8  T
     SCC iter.                  ...        0 min,  0.004 sec
     gradient                   ...        0 min,  0.001 sec
 * total energy  :   -10.4002838 Eh     change       -0.2140494E-01 Eh
   gradient norm :     0.3523112 Eh/α   predicted    -0.9634211E-01 ( 350.09%)
   displ. norm   :     0.5744927 α      lambda       -0.1526054E+00
   maximum displ.:     0.4314020 α      in ANC's #11, #17, #16, ...

........................................................................
.............................. CYCLE    7 ..............................
........................................................................
   1    -10.5969311 -0.105969E+02  0.117E+00    0.76       0.0  T
   2    -10.5429925  0.539386E-01  0.170E+00    0.74       1.0  T
   3    -10.4763920  0.666005E-01  0.266E+00    1.02       1.0  T
   4    -10.5822588 -0.105867E+00  0.107E+00    0.79       1.0  T
   5    -10.5973603 -0.151015E-01  0.412E-01    0.73       1.0  T
   6    -10.5940063  0.335397E-02  0.564E-01    0.76       1.0  T
   7    -10.5964179 -0.241162E-02  0.408E-01    0.75       1.0  T
   8    -10.5979035 -0.148554E-02  0.196E-01    0.75       1.0  T
   9    -10.5984990 -0.595477E-03  0.516E-02    0.75       1.0  T
  10    -10.5985345 -0.355847E-04  0.501E-03    0.75       7.1  T
  11    -10.5985348 -0.236666E-06  0.246E-03    0.75      14.4  T
  12    -10.5985347  0.536670E-07  0.277E-03    0.75      12.8  T
  13    -10.5985348 -0.109320E-06  0.354E-04    0.75     100.0  T
  14    -10.5985348  0.256746E-09  0.262E-04    0.75     134.7  T
     SCC iter.                  ...        0 min,  0.002 sec
     gradient                   ...        0 min,  0.001 sec
 * total energy  :   -10.4470121 Eh     change       -0.4672831E-01 Eh
   gradient norm :     0.1723044 Eh/α   predicted    -0.1014858E+00 ( 117.18%)
   displ. norm   :     0.6398767 α      lambda       -0.8435365E-01
   maximum displ.:     0.3293296 α      in ANC's #3, #7, #13, ...

........................................................................
.............................. CYCLE    8 ..............................
........................................................................
   1    -10.6628153 -0.106628E+02  0.181E+00    0.54       0.0  T
   2    -10.5131201  0.149695E+00  0.292E+00    0.79       1.0  T
   3    -10.1449315  0.368189E+00  0.626E+00    0.77       1.0  T
   4    -10.4614002 -0.316469E+00  0.402E+00    0.70       1.0  T
   5    -10.4768072 -0.154070E-01  0.380E+00    0.63       1.0  T
   6    -10.5631142 -0.863070E-01  0.277E+00    0.61       1.0  T
   7    -10.6359208 -0.728066E-01  0.148E+00    0.55       1.0  T
   8    -10.6602739 -0.243531E-01  0.760E-01    0.53       1.0  T
   9    -10.6650101 -0.473618E-02  0.487E-01    0.53       1.0  T
  10    -10.6678001 -0.279005E-02  0.143E-01    0.54       1.0  T
  11    -10.6677640  0.361220E-04  0.132E-01    0.54       1.0  T
  12    -10.6678662 -0.102160E-03  0.666E-02    0.53       1.0  T
  13    -10.6678736 -0.745332E-05  0.560E-02    0.53       1.0  T
  14    -10.6678924 -0.187771E-04  0.111E-02    0.54       3.2  T
  15    -10.6678914  0.981551E-06  0.107E-02    0.54       3.3  T
  16    -10.6678928 -0.141970E-05  0.149E-03    0.54      23.8  T
  17    -10.6678928  0.199533E-08  0.111E-03    0.54      32.0  T
  18    -10.6678928 -0.688209E-08  0.243E-04    0.54     145.5  T
  19    -10.6678928 -0.941274E-10  0.832E-05    0.54     424.9  T
     SCC iter.                  ...        0 min,  0.002 sec
     gradient                   ...        0 min,  0.001 sec
 * total energy  :   -10.4480699 Eh     change       -0.1057793E-02 Eh
   gradient norm :     0.1753615 Eh/α   predicted    -0.5944577E-01 (5519.79%)
   displ. norm   :     0.5154471 α      lambda       -0.5635105E-01
   maximum displ.:     0.3829228 α      in ANC's #7, #5, #9, ...

........................................................................
.............................. CYCLE    9 ..............................
........................................................................
   1    -10.6498614 -0.106499E+02  0.308E+00    1.07       0.0  T
   2    -10.4698652  0.179996E+00  0.286E+00    0.94       1.0  T
   3    -10.2238671  0.245998E+00  0.482E+00    2.82       1.0  T
   4    -10.5391757 -0.315309E+00  0.321E+00    1.45       1.0  T
   5    -10.5872984 -0.481228E-01  0.195E+00    1.40       1.0  T
   6    -10.6324201 -0.451217E-01  0.137E+00    1.23       1.0  T
   7    -10.6339918 -0.157165E-02  0.121E+00    1.23       1.0  T
   8    -10.6580498 -0.240580E-01  0.331E-01    1.10       1.0  T
   9    -10.6589762 -0.926422E-03  0.168E-01    1.09       1.0  T
  10    -10.6592952 -0.319055E-03  0.238E-02    1.08       1.5  T
  11    -10.6592979 -0.270458E-05  0.204E-02    1.07       1.7  T
  12    -10.6593058 -0.786119E-05  0.271E-03    1.08      13.0  T
  13    -10.6593059 -0.623089E-07  0.219E-03    1.08      16.1  T
  14    -10.6593059 -0.134512E-07  0.142E-03    1.08      24.9  T
  15    -10.6593059  0.435595E-09  0.143E-03    1.08      24.7  T
  16    -10.6593059 -0.263155E-07  0.390E-04    1.08      90.6  T
  17    -10.6593059 -0.189418E-08  0.200E-04    1.08     176.6  T
     SCC iter.                  ...        0 min,  0.003 sec
     gradient                   ...        0 min,  0.000 sec
 * total energy  :   -10.4669770 Eh     change       -0.1890719E-01 Eh
   gradient norm :     0.1461728 Eh/α   predicted    -0.3566136E-01 (  88.61%)
   displ. norm   :     0.6808018 α      lambda       -0.6599384E-01
   maximum displ.:     0.2975860 α      in ANC's #8, #2, #5, ...

........................................................................
.............................. CYCLE   10 ..............................
........................................................................
   1    -10.6903967 -0.106904E+02  0.215E+00    0.91       0.0  T
   2    -10.6581951  0.322016E-01  0.160E+00    1.21       1.0  T
   3     -9.2917768  0.136642E+01  0.833E+00    0.68       1.0  T
   4    -10.6544240 -0.136265E+01  0.148E+00    0.78       1.0  T
   5    -10.6885997 -0.341757E-01  0.609E-01    0.93       1.0  T
   6    -10.6929470 -0.434726E-02  0.229E-01    0.99       1.0  T
   7    -10.6924667  0.480334E-03  0.257E-01    1.01       1.0  T
   8    -10.6932220 -0.755298E-03  0.140E-01    0.99       1.0  T
   9    -10.6932473 -0.253556E-04  0.134E-01    0.99       1.0  T
  10    -10.6933346 -0.872439E-04  0.104E-01    0.99       1.0  T
  11    -10.6934917 -0.157099E-03  0.416E-02    0.98       1.0  T
  12    -10.6935126 -0.209110E-04  0.671E-03    0.98       5.3  T
  13    -10.6935128 -0.223260E-06  0.130E-03    0.98      27.1  T
  14    -10.6935128 -0.107623E-07  0.478E-04    0.98      73.9  T
  15    -10.6935128  0.183139E-09  0.422E-04    0.98      83.8  T
     SCC iter.                  ...        0 min,  0.002 sec
     gradient                   ...        0 min,  0.001 sec
 * total energy  :   -10.4202447 Eh     change        0.4673233E-01 Eh
   gradient norm :     0.4285461 Eh/α   predicted    -0.4829070E-01 (-203.33%)
   displ. norm   :     0.4444581 α      lambda       -0.1649524E+00
   maximum displ.:     0.2551211 α      in ANC's #8, #2, #16, ...

........................................................................
.............................. CYCLE   11 ..............................
........................................................................
   1    -10.6589212 -0.106589E+02  0.149E+00    0.76       0.0  T
   2    -10.6288236  0.300976E-01  0.173E+00    0.57       1.0  T
   3    -10.5923209  0.365027E-01  0.174E+00    1.06       1.0  T
   4    -10.4349910  0.157330E+00  0.382E+00    0.60       1.0  T
   5    -10.6063518 -0.171361E+00  0.174E+00    0.60       1.0  T
   6    -10.6615463 -0.551945E-01  0.226E-01    0.69       1.0  T
   7    -10.6604300  0.111628E-02  0.413E-01    0.76       1.0  T
   8    -10.6620610 -0.163103E-02  0.264E-01    0.74       1.0  T
   9    -10.6627028 -0.641783E-03  0.783E-02    0.73       1.0  T
  10    -10.6627270 -0.242099E-04  0.509E-02    0.73       1.0  T
  11    -10.6627568 -0.297275E-04  0.103E-02    0.73       3.4  T
  12    -10.6627566  0.159428E-06  0.104E-02    0.73       3.4  T
  13    -10.6627578 -0.124046E-05  0.633E-04    0.73      55.9  T
  14    -10.6627578  0.106926E-07  0.106E-03    0.73      33.3  T
  15    -10.6627578 -0.109774E-07  0.897E-05    0.73     394.3  T
  16    -10.6627578  0.183551E-10  0.586E-05    0.73     603.2  T
     SCC iter.                  ...        0 min,  0.003 sec
     gradient                   ...        0 min,  0.001 sec
 * total energy  :   -10.4764984 Eh     change       -0.5625368E-01 Eh
   gradient norm :     0.1050288 Eh/α   predicted    -0.9876880E-01 (  75.58%)
   displ. norm   :     0.7215587 α      lambda       -0.5260351E-01
   maximum displ.:     0.3924774 α      in ANC's #9, #13, #18, ...

........................................................................
.............................. CYCLE   12 ..............................
........................................................................
   1    -10.7274768 -0.107275E+02  0.243E+00    1.01       0.0  T
   2    -10.5740319  0.153445E+00  0.322E+00    1.70       1.0  T
   3    -10.1911281  0.382904E+00  0.604E+00    0.81       1.0  T
   4    -10.7267648 -0.535637E+00  0.143E+00    0.97       1.0  T
   5    -10.7369387 -0.101740E-01  0.647E-01    0.98       1.0  T
   6    -10.7419955 -0.505678E-02  0.484E-01    1.08       1.0  T
   7    -10.7422059 -0.210361E-03  0.402E-01    1.08       1.0  T
   8    -10.7421764  0.294261E-04  0.329E-01    1.08       1.0  T
   9    -10.7435627 -0.138627E-02  0.135E-01    1.06       1.0  T
  10    -10.7436082 -0.454376E-04  0.842E-02    1.06       1.0  T
  11    -10.7436446 -0.364349E-04  0.275E-02    1.06       1.3  T
  12    -10.7436478 -0.319663E-05  0.241E-02    1.05       1.5  T
  13    -10.7436514 -0.360317E-05  0.955E-03    1.05       3.7  T
  14    -10.7436521 -0.700831E-06  0.411E-03    1.05       8.6  T
  15    -10.7436522 -0.132129E-06  0.110E-03    1.05      32.1  T
  16    -10.7436522 -0.862185E-08  0.223E-04    1.05     158.4  T
  17    -10.7436522 -0.547882E-09  0.337E-05    1.05    1049.8  T
     SCC iter.                  ...        0 min,  0.003 sec
     gradient                   ...        0 min,  0.000 sec
 * total energy  :   -10.4357725 Eh     change        0.4072591E-01 Eh
   gradient norm :     0.3199230 Eh/α   predicted    -0.3999571E-01 (-198.21%)
   displ. norm   :     0.4229998 α      lambda       -0.1154964E+00
   maximum displ.:     0.2436603 α      in ANC's #9, #4, #16, ...

........................................................................
.............................. CYCLE   13 ..............................
........................................................................
   1    -10.6921621 -0.106922E+02  0.143E+00    0.98       0.0  T
   2    -10.6772336  0.149285E-01  0.138E+00    1.02       1.0  T
   3    -10.5891752  0.880583E-01  0.260E+00    0.85       1.0  T
   4    -10.6744865 -0.853113E-01  0.123E+00    1.11       1.0  T
   5    -10.6957299 -0.212433E-01  0.283E-01    1.00       1.0  T
   6    -10.6924514  0.327848E-02  0.520E-01    1.04       1.0  T
   7    -10.6927108 -0.259410E-03  0.468E-01    1.04       1.0  T
   8    -10.6961743 -0.346354E-02  0.135E-01    1.00       1.0  T
   9    -10.6961522  0.221621E-04  0.134E-01    1.00       1.0  T
  10    -10.6963114 -0.159176E-03  0.660E-02    1.00       1.0  T
  11    -10.6963502 -0.388674E-04  0.243E-02    1.00       1.5  T
  12    -10.6963568 -0.656710E-05  0.314E-03    1.00      11.3  T
  13    -10.6963569 -0.849190E-07  0.977E-04    1.00      36.2  T
  14    -10.6963569 -0.125935E-07  0.331E-04    1.00     106.9  T
     SCC iter.                  ...        0 min,  0.003 sec
     gradient                   ...        0 min,  0.001 sec
 * total energy  :   -10.4896179 Eh     change       -0.5384545E-01 Eh
   gradient norm :     0.0508207 Eh/α   predicted    -0.6808101E-01 (  26.44%)
   displ. norm   :     0.6584978 α      lambda       -0.1882152E-01
   maximum displ.:     0.5974805 α      in ANC's #1, #5, #3, ...

........................................................................
.............................. CYCLE   14 ..............................
........................................................................
   1    -10.7125686 -0.107126E+02  0.135E+00    1.04       0.0  T
   2    -10.7043543  0.821436E-02  0.111E+00    0.99       1.0  T
   3    -10.6181827  0.861716E-01  0.213E+00    1.50       1.0  T
   4    -10.6450133 -0.268307E-01  0.185E+00    0.88       1.0  T
   5    -10.7131324 -0.681191E-01  0.203E-01    1.05       1.0  T
   6    -10.7124963  0.636156E-03  0.292E-01    1.10       1.0  T
   7    -10.7132286 -0.732326E-03  0.163E-01    1.08       1.0  T
   8    -10.7131095  0.119143E-03  0.136E-01    1.09       1.0  T
   9    -10.7134294 -0.319961E-03  0.301E-02    1.08       1.2  T
  10    -10.7134326 -0.319250E-05  0.740E-03    1.08       4.8  T
  11    -10.7134332 -0.531623E-06  0.291E-03    1.08      12.1  T
  12    -10.7134332 -0.149940E-07  0.130E-03    1.08      27.3  T
  13    -10.7134332 -0.311068E-07  0.471E-04    1.08      75.1  T
  14    -10.7134332 -0.140786E-08  0.739E-05    1.08     478.5  T
     SCC iter.                  ...        0 min,  0.002 sec
     gradient                   ...        0 min,  0.000 sec
 * total energy  :   -10.4877838 Eh     change        0.1834162E-02 Eh
   gradient norm :     0.1479608 Eh/α   predicted    -0.1349144E-01 (-835.56%)
   displ. norm   :     0.4007757 α      lambda       -0.3177816E-01
   maximum displ.:     0.2175013 α      in ANC's #4, #5, #2, ...

........................................................................
.............................. CYCLE   15 ..............................
........................................................................
   1    -10.7063105 -0.107063E+02  0.101E+00    1.10       0.0  T
   2    -10.7059064  0.404046E-03  0.588E-01    1.12       1.0  T
   3    -10.6548782  0.510283E-01  0.170E+00    0.93       1.0  T
   4    -10.6982013 -0.433231E-01  0.721E-01    1.18       1.0  T
   5    -10.7061690 -0.796772E-02  0.143E-01    1.08       1.0  T
   6    -10.7063358 -0.166774E-03  0.103E-01    1.11       1.0  T
   7    -10.7065016 -0.165837E-03  0.299E-02    1.10       1.2  T
   8    -10.7065016  0.349579E-07  0.298E-02    1.11       1.2  T
   9    -10.7065116 -0.996335E-05  0.151E-02    1.10       2.3  T
  10    -10.7065125 -0.896008E-06  0.109E-02    1.10       3.2  T
  11    -10.7065142 -0.170218E-05  0.173E-03    1.10      20.4  T
  12    -10.7065142 -0.248589E-07  0.663E-04    1.10      53.4  T
  13    -10.7065142 -0.492157E-08  0.150E-04    1.10     236.2  T
     SCC iter.                  ...        0 min,  0.002 sec
     gradient                   ...        0 min,  0.000 sec
 * total energy  :   -10.5008468 Eh     change       -0.1306307E-01 Eh
   gradient norm :     0.0680102 Eh/α   predicted    -0.1844120E-01 (  41.17%)
   displ. norm   :     0.5983966 α      lambda       -0.2724071E-01
   maximum displ.:     0.4004719 α      in ANC's #6, #9, #13, ...

........................................................................
.............................. CYCLE   16 ..............................
........................................................................
   1    -10.4532173 -0.104532E+02  0.558E+00    0.55       0.0  T
   2     -9.5502422  0.902975E+00  0.839E+00    4.62       1.0  T
   3    -10.6872489 -0.113701E+01  0.179E+00    0.79       1.0  T
   4    -10.1301543  0.557095E+00  0.656E+00    0.54       1.0  T
   5    -10.7024252 -0.572271E+00  0.116E+00    0.63       1.0  T
   6    -10.6449900  0.574352E-01  0.247E+00    0.85       1.0  T
   7    -10.6578345 -0.128444E-01  0.223E+00    0.83       1.0  T
   8    -10.6585406 -0.706154E-03  0.210E+00    0.85       1.0  T
   9    -10.6787994 -0.202588E-01  0.169E+00    0.81       1.0  T
  10    -10.6794565 -0.657032E-03  0.166E+00    0.81       1.0  T
  11    -10.7097998 -0.303433E-01  0.545E-01    0.74       1.0  T
  12    -10.7122009 -0.240114E-02  0.350E-01    0.69       1.0  T
  13    -10.7121937  0.717116E-05  0.351E-01    0.69       1.0  T
  14    -10.7136019 -0.140815E-02  0.459E-02    0.71       1.0  T
  15    -10.7136219 -0.200455E-04  0.265E-02    0.71       1.3  T
  16    -10.7136238 -0.182866E-05  0.175E-02    0.71       2.0  T
  17    -10.7136238 -0.309015E-07  0.175E-02    0.71       2.0  T
  18    -10.7136271 -0.327974E-05  0.534E-03    0.71       6.6  T
  19    -10.7136272 -0.119681E-06  0.446E-03    0.71       7.9  T
  20    -10.7136274 -0.211377E-06  0.165E-03    0.71      21.4  T
  21    -10.7136274 -0.290886E-07  0.593E-04    0.71      59.6  T
  22    -10.7136275 -0.421071E-08  0.246E-05    0.71    1434.6  T
     SCC iter.                  ...        0 min,  0.003 sec
     gradient                   ...        0 min,  0.001 sec
 * total energy  :   -10.4798725 Eh     change        0.2097437E-01 Eh
   gradient norm :     0.1779355 Eh/α   predicted    -0.1849749E-01 (-188.19%)
   displ. norm   :     0.3821404 α      lambda       -0.5268117E-01
   maximum displ.:     0.2197659 α      in ANC's #9, #1, #4, ...

........................................................................
.............................. CYCLE   17 ..............................
........................................................................
   1    -10.7243683 -0.107244E+02  0.215E+00    1.20       0.0  T
   2     -9.6201653  0.110420E+01  0.808E+00    0.79       1.0  T
   3    -10.5955708 -0.975405E+00  0.310E+00    1.68       1.0  T
   4    -10.7277266 -0.132156E+00  0.135E+00    1.20       1.0  T
   5    -10.7361542 -0.842756E-02  0.888E-01    1.16       1.0  T
   6    -10.7363631 -0.208934E-03  0.838E-01    1.17       1.0  T
   7    -10.7399025 -0.353936E-02  0.550E-01    1.15       1.0  T
   8    -10.7406711 -0.768594E-03  0.371E-01    1.15       1.0  T
   9    -10.7407383 -0.672573E-04  0.303E-01    1.16       1.0  T
  10    -10.7409632 -0.224865E-03  0.257E-01    1.16       1.0  T
  11    -10.7416936 -0.730419E-03  0.491E-02    1.14       1.0  T
  12    -10.7416932  0.379777E-06  0.498E-02    1.14       1.0  T
  13    -10.7417158 -0.225956E-04  0.258E-02    1.14       1.4  T
  14    -10.7417208 -0.499967E-05  0.119E-03    1.14      29.6  T
  15    -10.7417208  0.109445E-08  0.144E-03    1.14      24.5  T
  16    -10.7417209 -0.174739E-07  0.142E-04    1.14     249.1  T
  17    -10.7417209  0.175307E-09  0.203E-04    1.14     174.3  T
     SCC iter.                  ...        0 min,  0.002 sec
     gradient                   ...        0 min,  0.000 sec
 * total energy  :   -10.5054001 Eh     change       -0.2552763E-01 Eh
   gradient norm :     0.1237976 Eh/α   predicted    -0.3018714E-01 (  18.25%)
   displ. norm   :     0.6151400 α      lambda       -0.3903676E-01
   maximum displ.:     0.4767613 α      in ANC's #5, #1, #6, ...

........................................................................
.............................. CYCLE   18 ..............................
........................................................................
   1    -10.6548771 -0.106549E+02  0.280E+00    1.14       0.0  T
   2     -7.9611106  0.269377E+01  0.114E+01    0.84       1.0  T
   3    -10.6840476 -0.272294E+01  0.161E+00    0.95       1.0  T
   4    -10.3030627  0.380985E+00  0.492E+00    0.71       1.0  T
   5    -10.4621950 -0.159132E+00  0.375E+00    0.71       1.0  T
   6    -10.3590176  0.103177E+00  0.416E+00    0.68       1.0  T
   7    -10.6662493 -0.307232E+00  0.113E+00    0.79       1.0  T
   8    -10.6923926 -0.261433E-01  0.126E+00    0.91       1.0  T
   9    -10.6926447 -0.252099E-03  0.890E-01    0.91       1.0  T
  10    -10.6930143 -0.369608E-03  0.355E-01    0.91       1.0  T
  11    -10.6929955  0.188156E-04  0.305E-01    0.91       1.0  T
  12    -10.6931594 -0.163926E-03  0.948E-02    0.91       1.0  T
  13    -10.6931732 -0.137821E-04  0.639E-02    0.91       1.0  T
  14    -10.6931805 -0.736351E-05  0.195E-02    0.91       1.8  T
  15    -10.6931818 -0.130805E-05  0.717E-03    0.91       4.9  T
  16    -10.6931820 -0.173165E-06  0.151E-03    0.90      23.4  T
  17    -10.6931820 -0.117247E-07  0.106E-03    0.90      33.5  T
  18    -10.6931820 -0.151226E-07  0.696E-04    0.90      50.8  T
  19    -10.6931820 -0.171763E-09  0.238E-04    0.90     148.3  T
     SCC iter.                  ...        0 min,  0.003 sec
     gradient                   ...        0 min,  0.000 sec
 * total energy  :   -10.4865349 Eh     change        0.1886516E-01 Eh
   gradient norm :     0.1795920 Eh/α   predicted    -0.2690412E-01 (-242.61%)
   displ. norm   :     0.3856571 α      lambda       -0.4485114E-01
   maximum displ.:     0.1790470 α      in ANC's #6, #4, #5, ...

........................................................................
.............................. CYCLE   19 ..............................
........................................................................
   1    -10.7000930 -0.107001E+02  0.183E+00    1.02       0.0  T
   2    -10.5676708  0.132422E+00  0.301E+00    1.71       1.0  T
   3    -10.5976662 -0.299954E-01  0.275E+00    0.90       1.0  T
   4    -10.6914882 -0.938219E-01  0.147E+00    1.24       1.0  T
   5    -10.7062989 -0.148108E-01  0.685E-01    1.24       1.0  T
   6    -10.7057597  0.539282E-03  0.700E-01    1.25       1.0  T
   7    -10.7057411  0.185731E-04  0.614E-01    1.26       1.0  T
   8    -10.7103672 -0.462608E-02  0.258E-01    1.21       1.0  T
   9    -10.7109057 -0.538573E-03  0.134E-01    1.20       1.0  T
  10    -10.7110579 -0.152122E-03  0.405E-02    1.19       1.0  T
  11    -10.7110692 -0.113155E-04  0.582E-03    1.19       6.1  T
  12    -10.7110692 -0.312520E-07  0.285E-03    1.19      12.4  T
  13    -10.7110692 -0.282738E-07  0.569E-04    1.19      62.1  T
  14    -10.7110692 -0.496437E-09  0.977E-05    1.19     362.0  T
     SCC iter.                  ...        0 min,  0.002 sec
     gradient                   ...        0 min,  0.001 sec
 * total energy  :   -10.5133643 Eh     change       -0.2682931E-01 Eh
   gradient norm :     0.0621685 Eh/α   predicted    -0.2576096E-01 (  -3.98%)
   displ. norm   :     0.4308713 α      lambda       -0.1892360E-01
   maximum displ.:     0.1808778 α      in ANC's #7, #13, #6, ...

........................................................................
.............................. CYCLE   20 ..............................
........................................................................
   1    -10.7239425 -0.107239E+02  0.280E+00    0.80       0.0  T
   2    -10.2896481  0.434294E+00  0.540E+00    3.02       1.0  T
   3    -10.7406739 -0.451026E+00  0.189E+00    0.82       1.0  T
   4    -10.7584772 -0.178033E-01  0.105E+00    0.92       1.0  T
   5    -10.7699451 -0.114679E-01  0.390E-01    0.96       1.0  T
   6    -10.7697367  0.208378E-03  0.410E-01    0.98       1.0  T
   7    -10.7651224  0.461435E-02  0.583E-01    0.93       1.0  T
   8    -10.7699711 -0.484875E-02  0.793E-02    1.00       1.0  T
   9    -10.7699931 -0.220073E-04  0.269E-02    1.00       1.3  T
  10    -10.7699878  0.534055E-05  0.320E-02    1.00       1.1  T
  11    -10.7699926 -0.485759E-05  0.132E-02    1.00       2.7  T
  12    -10.7699934 -0.747608E-06  0.523E-03    1.00       6.8  T
  13    -10.7699934 -0.166407E-08  0.504E-03    1.00       7.0  T
  14    -10.7699936 -0.219396E-06  0.514E-04    1.00      68.8  T
  15    -10.7699936 -0.362339E-09  0.414E-04    1.00      85.5  T
     SCC iter.                  ...        0 min,  0.003 sec
     gradient                   ...        0 min,  0.000 sec
 * total energy  :   -10.5068002 Eh     change        0.6564104E-02 Eh
   gradient norm :     0.1654367 Eh/α   predicted    -0.1121839E-01 (-270.91%)
   displ. norm   :     0.2983479 α      lambda       -0.2662978E-01
   maximum displ.:     0.1589685 α      in ANC's #4, #1, #7, ...
 * RMSD in coord.:     1.7042005 α      energy gain  -0.7460173E+00 Eh

generating ANC from model Hessian ...
Using Lindh-Hessian (1995)
 Shifting diagonal of input Hessian by    9.6132562519716455E-003
 Lowest  eigenvalues of input Hessian
    0.000000    0.000000    0.000000    0.000000    0.000000    0.000000
    0.010000    0.010868    0.011834    0.045979    0.067025    0.096403
    0.110428    0.118910    0.124473    0.241538    0.383810    0.434054
 Highest eigenvalues
    0.575723    0.863672    1.101648    1.105220    1.290286    2.434301


........................................................................
.............................. CYCLE   21 ..............................
........................................................................
   1    -10.7343069 -0.107343E+02  0.123E+00    1.28       0.0  T
   2    -10.5040840  0.230223E+00  0.416E+00    0.84       1.0  T
   3    -10.7163511 -0.212267E+00  0.152E+00    1.40       1.0  T
   4    -10.7318198 -0.154687E-01  0.792E-01    1.28       1.0  T
   5    -10.7366369 -0.481715E-02  0.470E-01    1.25       1.0  T
   6    -10.7373614 -0.724437E-03  0.398E-01    1.24       1.0  T
   7    -10.7371491  0.212239E-03  0.407E-01    1.24       1.0  T
   8    -10.7382399 -0.109076E-02  0.246E-01    1.23       1.0  T
   9    -10.7387594 -0.519511E-03  0.820E-02    1.22       1.0  T
  10    -10.7388165 -0.571219E-04  0.236E-02    1.21       1.5  T
  11    -10.7388217 -0.516628E-05  0.158E-03    1.21      22.4  T
  12    -10.7388216  0.845877E-07  0.302E-03    1.21      11.7  T
  13    -10.7388216 -0.379069E-07  0.226E-03    1.21      15.6  T
  14    -10.7388217 -0.448921E-07  0.719E-04    1.21      49.2  T
  15    -10.7388217 -0.419375E-08  0.300E-05    1.21    1177.0  T
     SCC iter.                  ...        0 min,  0.002 sec
     gradient                   ...        0 min,  0.000 sec
 * total energy  :   -10.5208453 Eh     change       -0.1404515E-01 Eh
   gradient norm :     0.0376262 Eh/α   predicted     0.0000000E+00 (-100.00%)
   displ. norm   :     0.3415369 α      lambda       -0.5348442E-02
   maximum displ.:     0.2650681 α      in ANC's #3, #4, #2, ...

........................................................................
.............................. CYCLE   22 ..............................
........................................................................
   1    -10.7504715 -0.107505E+02  0.929E-01    1.27       0.0  T
   2    -10.7444946  0.597684E-02  0.813E-01    1.18       1.0  T
   3    -10.7094520  0.350426E-01  0.187E+00    1.59       1.0  T
   4    -10.7486825 -0.392304E-01  0.419E-01    1.25       1.0  T
   5    -10.7506147 -0.193224E-02  0.188E-01    1.29       1.0  T
   6    -10.7503093  0.305391E-03  0.234E-01    1.30       1.0  T
   7    -10.7506813 -0.371943E-03  0.128E-01    1.29       1.0  T
   8    -10.7507582 -0.769386E-04  0.545E-02    1.29       1.0  T
   9    -10.7507865 -0.282679E-04  0.441E-03    1.28       8.0  T
  10    -10.7507865 -0.653037E-07  0.249E-03    1.28      14.2  T
  11    -10.7507865  0.409905E-09  0.104E-03    1.28      33.9  T
  12    -10.7507865 -0.404122E-08  0.724E-04    1.28      48.8  T
  13    -10.7507865 -0.443164E-08  0.126E-04    1.28     280.3  T
     SCC iter.                  ...        0 min,  0.002 sec
     gradient                   ...        0 min,  0.000 sec
 * total energy  :   -10.5246799 Eh     change       -0.3834627E-02 Eh
   gradient norm :     0.0266912 Eh/α   predicted    -0.2986166E-02 ( -22.13%)
   displ. norm   :     0.5500979 α      lambda       -0.7572809E-02
   maximum displ.:     0.3419915 α      in ANC's #1, #4, #2, ...

........................................................................
.............................. CYCLE   23 ..............................
........................................................................
   1    -10.7732779 -0.107733E+02  0.260E+00    1.26       0.0  T
   2    -10.7716051  0.167286E-02  0.153E+00    1.20       1.0  T
   3    -10.6438602  0.127745E+00  0.307E+00    2.07       1.0  T
   4    -10.7716573 -0.127797E+00  0.428E-01    1.21       1.0  T
   5    -10.7720477 -0.390377E-03  0.409E-01    1.32       1.0  T
   6    -10.7725956 -0.547952E-03  0.287E-01    1.32       1.0  T
   7    -10.7735160 -0.920430E-03  0.756E-02    1.28       1.0  T
   8    -10.7735443 -0.282486E-04  0.207E-02    1.28       1.7  T
   9    -10.7735453 -0.994305E-06  0.999E-03    1.28       3.5  T
  10    -10.7735454 -0.127856E-06  0.607E-03    1.28       5.8  T
  11    -10.7735455 -0.346303E-07  0.281E-03    1.28      12.6  T
  12    -10.7735455 -0.449884E-07  0.127E-03    1.28      27.9  T
  13    -10.7735455 -0.130585E-07  0.116E-04    1.28     304.9  T
  14    -10.7735455  0.798526E-10  0.925E-05    1.28     382.0  T
     SCC iter.                  ...        0 min,  0.002 sec
     gradient                   ...        0 min,  0.001 sec
 * total energy  :   -10.5288494 Eh     change       -0.4169516E-02 Eh
   gradient norm :     0.0308821 Eh/α   predicted    -0.4932182E-02 (  18.29%)
   displ. norm   :     0.4855044 α      lambda       -0.4158656E-02
   maximum displ.:     0.2763041 α      in ANC's #1, #4, #3, ...

........................................................................
.............................. CYCLE   24 ..............................
........................................................................
   1    -10.7646023 -0.107646E+02  0.188E+00    1.20       0.0  T
   2    -10.7634794  0.112297E-02  0.139E+00    1.27       1.0  T
   3    -10.5053788  0.258101E+00  0.457E+00    0.69       1.0  T
   4    -10.7510360 -0.245657E+00  0.108E+00    1.41       1.0  T
   5    -10.7647794 -0.137434E-01  0.260E-01    1.25       1.0  T
   6    -10.7643764  0.403017E-03  0.272E-01    1.27       1.0  T
   7    -10.7646024 -0.226024E-03  0.166E-01    1.27       1.0  T
   8    -10.7648176 -0.215137E-03  0.103E-01    1.26       1.0  T
   9    -10.7648787 -0.611191E-04  0.506E-02    1.25       1.0  T
  10    -10.7648827 -0.403783E-05  0.420E-02    1.25       1.0  T
  11    -10.7648938 -0.111147E-04  0.233E-02    1.25       1.5  T
  12    -10.7648986 -0.475316E-05  0.391E-03    1.25       9.0  T
  13    -10.7648987 -0.910419E-07  0.137E-03    1.25      25.9  T
  14    -10.7648987 -0.748582E-08  0.431E-04    1.25      82.0  T
  15    -10.7648987 -0.706233E-09  0.244E-04    1.25     145.0  T
     SCC iter.                  ...        0 min,  0.002 sec
     gradient                   ...        0 min,  0.000 sec
 * total energy  :   -10.5316625 Eh     change       -0.2813100E-02 Eh
   gradient norm :     0.0280915 Eh/α   predicted    -0.2569464E-02 (  -8.66%)
   displ. norm   :     0.2615617 α      lambda       -0.1980415E-02
   maximum displ.:     0.1612315 α      in ANC's #3, #4, #11, ...

........................................................................
.............................. CYCLE   25 ..............................
........................................................................
   1    -10.7650167 -0.107650E+02  0.124E+00    1.33       0.0  T
   2    -10.7640303  0.986373E-03  0.688E-01    1.28       1.0  T
   3    -10.7312131  0.328172E-01  0.164E+00    1.70       1.0  T
   4    -10.7616968 -0.304837E-01  0.525E-01    1.25       1.0  T
   5    -10.7645430 -0.284620E-02  0.317E-01    1.38       1.0  T
   6    -10.7648516 -0.308600E-03  0.214E-01    1.37       1.0  T
   7    -10.7652810 -0.429362E-03  0.819E-02    1.34       1.0  T
   8    -10.7653162 -0.352335E-04  0.305E-02    1.34       1.2  T
   9    -10.7653260 -0.981269E-05  0.100E-02    1.33       3.5  T
  10    -10.7653270 -0.970433E-06  0.209E-03    1.33      16.9  T
  11    -10.7653270 -0.313764E-07  0.372E-04    1.33      95.0  T
  12    -10.7653270 -0.472518E-09  0.252E-04    1.33     140.1  T
     SCC iter.                  ...        0 min,  0.001 sec
     gradient                   ...        0 min,  0.000 sec
 * total energy  :   -10.5328366 Eh     change       -0.1174017E-02 Eh
   gradient norm :     0.0204055 Eh/α   predicted    -0.1057952E-02 (  -9.89%)
   displ. norm   :     0.2968566 α      lambda       -0.1846432E-02
   maximum displ.:     0.1615408 α      in ANC's #1, #4, #11, ...

........................................................................
.............................. CYCLE   26 ..............................
........................................................................
   1    -10.7703687 -0.107704E+02  0.150E+00    1.26       0.0  T
   2    -10.7703952 -0.265314E-04  0.886E-01    1.25       1.0  T
   3    -10.7696710  0.724182E-03  0.344E-01    1.31       1.0  T
   4    -10.7669898  0.268118E-02  0.463E-01    1.15       1.0  T
   5    -10.7689280 -0.193813E-02  0.313E-01    1.33       1.0  T
   6    -10.7704246 -0.149667E-02  0.324E-02    1.27       1.1  T
   7    -10.7704193  0.532959E-05  0.275E-02    1.26       1.3  T
   8    -10.7704262 -0.691358E-05  0.829E-03    1.27       4.3  T
   9    -10.7704268 -0.605704E-06  0.266E-03    1.27      13.3  T
  10    -10.7704269 -0.238140E-07  0.533E-04    1.27      66.3  T
  11    -10.7704269  0.240815E-09  0.303E-04    1.27     116.6  T
     SCC iter.                  ...        0 min,  0.002 sec
     gradient                   ...        0 min,  0.000 sec
 * total energy  :   -10.5339384 Eh     change       -0.1101822E-02 Eh
   gradient norm :     0.0204945 Eh/α   predicted    -0.1004573E-02 (  -8.83%)
   displ. norm   :     0.1974136 α      lambda       -0.2085659E-02
   maximum displ.:     0.1378657 α      in ANC's #11, #12, #4, ...

........................................................................
.............................. CYCLE   27 ..............................
........................................................................
   1    -10.7843737 -0.107844E+02  0.118E+00    1.38       0.0  T
   2    -10.7823413  0.203247E-02  0.657E-01    1.27       1.0  T
   3    -10.7347858  0.475555E-01  0.162E+00    1.93       1.0  T
   4    -10.7841558 -0.493701E-01  0.228E-01    1.33       1.0  T
   5    -10.7844411 -0.285218E-03  0.158E-01    1.38       1.0  T
   6    -10.7843620  0.790697E-04  0.131E-01    1.39       1.0  T
   7    -10.7845896 -0.227613E-03  0.253E-02    1.36       1.4  T
   8    -10.7845905 -0.886064E-06  0.164E-02    1.36       2.2  T
   9    -10.7845927 -0.224114E-05  0.131E-03    1.36      26.9  T
  10    -10.7845927  0.268907E-09  0.853E-04    1.36      41.4  T
  11    -10.7845927 -0.160746E-09  0.282E-04    1.36     125.2  T
     SCC iter.                  ...        0 min,  0.002 sec
     gradient                   ...        0 min,  0.001 sec
 * total energy  :   -10.5347299 Eh     change       -0.7914942E-03 Eh
   gradient norm :     0.0249243 Eh/α   predicted    -0.1083472E-02 (  36.89%)
   displ. norm   :     0.2877521 α      lambda       -0.1223968E-02
   maximum displ.:     0.1535784 α      in ANC's #4, #1, #3, ...

........................................................................
.............................. CYCLE   28 ..............................
........................................................................
   1    -10.7771036 -0.107771E+02  0.111E+00    1.28       0.0  T
   2    -10.7769066  0.197023E-03  0.743E-01    1.32       1.0  T
   3    -10.7404255  0.364810E-01  0.138E+00    0.93       1.0  T
   4    -10.7765856 -0.361601E-01  0.199E-01    1.34       1.0  T
   5    -10.7771314 -0.545769E-03  0.507E-02    1.29       1.0  T
   6    -10.7771314  0.247789E-07  0.374E-02    1.30       1.0  T
   7    -10.7771370 -0.562409E-05  0.292E-02    1.30       1.2  T
   8    -10.7771471 -0.100525E-04  0.574E-03    1.30       6.2  T
   9    -10.7771471 -0.870669E-08  0.272E-03    1.30      13.0  T
  10    -10.7771471 -0.276873E-07  0.151E-03    1.30      23.4  T
  11    -10.7771471 -0.138772E-07  0.689E-04    1.30      51.3  T
  12    -10.7771471 -0.473180E-08  0.154E-04    1.30     229.2  T
     SCC iter.                  ...        0 min,  0.002 sec
     gradient                   ...        0 min,  0.001 sec
 * total energy  :   -10.5352683 Eh     change       -0.5384287E-03 Eh
   gradient norm :     0.0146928 Eh/α   predicted    -0.6626615E-03 (  23.07%)
   displ. norm   :     0.0541181 α      lambda       -0.3218504E-03
   maximum displ.:     0.0430345 α      in ANC's #4, #1, #3, ...

........................................................................
.............................. CYCLE   29 ..............................
........................................................................
   1    -10.7851565 -0.107852E+02  0.178E-01    1.32       0.0  T
   2    -10.7849439  0.212691E-03  0.138E-01    1.36       1.0  T
   3    -10.7839561  0.987764E-03  0.282E-01    1.25       1.0  T
   4    -10.7850973 -0.114117E-02  0.955E-02    1.33       1.0  T
   5    -10.7851748 -0.775016E-04  0.300E-02    1.32       1.2  T
   6    -10.7851902 -0.154561E-04  0.674E-03    1.33       5.2  T
   7    -10.7851901  0.168492E-06  0.479E-03    1.33       7.4  T
   8    -10.7851903 -0.263849E-06  0.126E-03    1.33      28.0  T
   9    -10.7851903 -0.777419E-08  0.534E-04    1.33      66.3  T
  10    -10.7851903 -0.175876E-08  0.283E-04    1.33     125.0  T
     SCC iter.                  ...        0 min,  0.002 sec
     gradient                   ...        0 min,  0.001 sec
 * total energy  :   -10.5353729 Eh     change       -0.1045620E-03 Eh
   gradient norm :     0.0114540 Eh/α   predicted    -0.1613951E-03 (  54.35%)
   displ. norm   :     0.0765438 α      lambda       -0.2152181E-03
   maximum displ.:     0.0463706 α      in ANC's #4, #11, #7, ...

........................................................................
.............................. CYCLE   30 ..............................
........................................................................
   1    -10.7840863 -0.107841E+02  0.341E-01    1.32       0.0  T
   2    -10.7840244  0.618812E-04  0.211E-01    1.30       1.0  T
   3    -10.7792167  0.480771E-02  0.488E-01    1.48       1.0  T
   4    -10.7840711 -0.485447E-02  0.426E-02    1.33       1.0  T
   5    -10.7840883 -0.171924E-04  0.265E-02    1.32       1.3  T
   6    -10.7840926 -0.427488E-05  0.959E-03    1.32       3.7  T
   7    -10.7840924  0.232887E-06  0.799E-03    1.32       4.4  T
   8    -10.7840934 -0.105973E-05  0.108E-03    1.32      32.7  T
   9    -10.7840934 -0.207119E-08  0.496E-04    1.32      71.3  T
  10    -10.7840934 -0.119676E-08  0.142E-04    1.32     248.7  T
     SCC iter.                  ...        0 min,  0.002 sec
     gradient                   ...        0 min,  0.001 sec
 * total energy  :   -10.5354753 Eh     change       -0.1024558E-03 Eh
   gradient norm :     0.0067083 Eh/α   predicted    -0.1082375E-03 (   5.64%)
   displ. norm   :     0.0737968 α      lambda       -0.9325345E-04
   maximum displ.:     0.0373641 α      in ANC's #1, #4, #11, ...

........................................................................
.............................. CYCLE   31 ..............................
........................................................................
   1    -10.7829387 -0.107829E+02  0.241E-01    1.33       0.0  T
   2    -10.7828911  0.476115E-04  0.151E-01    1.31       1.0  T
   3    -10.7802856  0.260556E-02  0.371E-01    1.44       1.0  T
   4    -10.7829303 -0.264470E-02  0.316E-02    1.32       1.1  T
   5    -10.7829399 -0.958294E-05  0.188E-02    1.32       1.9  T
   6    -10.7829421 -0.225591E-05  0.106E-02    1.32       3.3  T
   7    -10.7829439 -0.179343E-05  0.275E-03    1.32      12.8  T
   8    -10.7829439 -0.186714E-07  0.817E-04    1.32      43.3  T
   9    -10.7829439 -0.202742E-08  0.256E-04    1.32     138.1  T
     SCC iter.                  ...        0 min,  0.002 sec
     gradient                   ...        0 min,  0.001 sec
 * total energy  :   -10.5355306 Eh     change       -0.5530368E-04 Eh
   gradient norm :     0.0052435 Eh/α   predicted    -0.4688016E-04 ( -15.23%)
   displ. norm   :     0.0418935 α      lambda       -0.3896085E-04
   maximum displ.:     0.0259113 α      in ANC's #1, #11, #4, ...

........................................................................
.............................. CYCLE   32 ..............................
........................................................................
   1    -10.7837374 -0.107837E+02  0.175E-01    1.32       0.0  T
   2    -10.7837377 -0.312254E-06  0.111E-01    1.32       1.0  T
   3    -10.7837334  0.423674E-05  0.150E-02    1.32       2.4  T
   4    -10.7837091  0.242791E-04  0.382E-02    1.33       1.0  T
   5    -10.7837371 -0.279373E-04  0.722E-03    1.32       4.9  T
   6    -10.7837378 -0.734674E-06  0.288E-03    1.32      12.3  T
   7    -10.7837378 -0.261485E-07  0.201E-03    1.32      17.6  T
   8    -10.7837379 -0.424518E-07  0.708E-04    1.32      49.9  T
   9    -10.7837379 -0.519046E-08  0.314E-04    1.32     112.6  T
     SCC iter.                  ...        0 min,  0.002 sec
     gradient                   ...        0 min,  0.001 sec
 * total energy  :   -10.5355578 Eh     change       -0.2713904E-04 Eh
   gradient norm :     0.0024524 Eh/α   predicted    -0.1951501E-04 ( -28.09%)
   displ. norm   :     0.0378897 α      lambda       -0.2499029E-04
   maximum displ.:     0.0212527 α      in ANC's #1, #3, #2, ...

........................................................................
.............................. CYCLE   33 ..............................
........................................................................
   1    -10.7844858 -0.107845E+02  0.160E-01    1.33       0.0  T
   2    -10.7844849  0.919065E-06  0.101E-01    1.32       1.0  T
   3    -10.7843561  0.128770E-03  0.829E-02    1.35       1.0  T
   4    -10.7844655 -0.109363E-03  0.331E-02    1.31       1.1  T
   5    -10.7844858 -0.203711E-04  0.957E-03    1.33       3.7  T
   6    -10.7844861 -0.220771E-06  0.552E-03    1.33       6.4  T
   7    -10.7844866 -0.543601E-06  0.177E-03    1.33      20.0  T
   8    -10.7844866 -0.119326E-07  0.516E-04    1.33      68.5  T
   9    -10.7844866 -0.246585E-08  0.216E-04    1.33     163.8  T
     SCC iter.                  ...        0 min,  0.001 sec
     gradient                   ...        0 min,  0.001 sec
 * total energy  :   -10.5355736 Eh     change       -0.1580594E-04 Eh
   gradient norm :     0.0022885 Eh/α   predicted    -0.1251302E-04 ( -20.83%)
   displ. norm   :     0.0292902 α      lambda       -0.1253430E-04
   maximum displ.:     0.0217775 α      in ANC's #1, #3, #11, ...

........................................................................
.............................. CYCLE   34 ..............................
........................................................................
   1    -10.7843761 -0.107844E+02  0.140E-01    1.32       0.0  T
   2    -10.7843762 -0.702465E-07  0.897E-02    1.32       1.0  T
   3    -10.7843689  0.727576E-05  0.258E-02    1.33       1.4  T
   4    -10.7843733 -0.438235E-05  0.122E-02    1.32       2.9  T
   5    -10.7843732  0.145252E-06  0.133E-02    1.32       2.7  T
   6    -10.7843764 -0.326489E-05  0.203E-03    1.32      17.4  T
   7    -10.7843764 -0.298843E-07  0.937E-04    1.32      37.7  T
   8    -10.7843765 -0.109716E-07  0.232E-04    1.32     152.1  T
     SCC iter.                  ...        0 min,  0.001 sec
     gradient                   ...        0 min,  0.001 sec
 * total energy  :   -10.5355819 Eh     change       -0.8351012E-05 Eh
   gradient norm :     0.0025065 Eh/α   predicted    -0.6272375E-05 ( -24.89%)
   displ. norm   :     0.0259635 α      lambda       -0.1122821E-04
   maximum displ.:     0.0162277 α      in ANC's #1, #3, #2, ...

........................................................................
.............................. CYCLE   35 ..............................
........................................................................
   1    -10.7844052 -0.107844E+02  0.120E-01    1.32       0.0  T
   2    -10.7844050  0.161203E-06  0.772E-02    1.32       1.0  T
   3    -10.7843611  0.439012E-04  0.459E-02    1.34       1.0  T
   4    -10.7844047 -0.435088E-04  0.798E-03    1.32       4.4  T
   5    -10.7844053 -0.677216E-06  0.450E-03    1.32       7.9  T
   6    -10.7844054 -0.102529E-06  0.185E-03    1.32      19.1  T
   7    -10.7844055 -0.385043E-07  0.729E-04    1.32      48.5  T
   8    -10.7844055 -0.361444E-08  0.222E-04    1.32     159.3  T
     SCC iter.                  ...        0 min,  0.002 sec
     gradient                   ...        0 min,  0.001 sec
 * total energy  :   -10.5355895 Eh     change       -0.7601141E-05 Eh
   gradient norm :     0.0021455 Eh/α   predicted    -0.5619373E-05 ( -26.07%)
   displ. norm   :     0.0159356 α      lambda       -0.7188299E-05
   maximum displ.:     0.0106586 α      in ANC's #1, #4, #12, ...

........................................................................
.............................. CYCLE   36 ..............................
........................................................................
   1    -10.7840338 -0.107840E+02  0.646E-02    1.32       0.0  T
   2    -10.7840338 -0.225881E-07  0.412E-02    1.32       1.0  T
   3    -10.7840309  0.284050E-05  0.120E-02    1.32       2.9  T
   4    -10.7840337 -0.279836E-05  0.307E-03    1.32      11.5  T
   5    -10.7840338 -0.535997E-07  0.213E-03    1.32      16.6  T
   6    -10.7840338 -0.182119E-07  0.112E-03    1.32      31.5  T
   7    -10.7840338 -0.153503E-07  0.408E-04    1.32      86.7  T
   8    -10.7840338 -0.233349E-08  0.123E-04    1.32     287.3  T
     SCC iter.                  ...        0 min,  0.001 sec
     gradient                   ...        0 min,  0.001 sec
 * total energy  :   -10.5355945 Eh     change       -0.5002299E-05 Eh
   gradient norm :     0.0012717 Eh/α   predicted    -0.3593962E-05 ( -28.15%)
   displ. norm   :     0.0246721 α      lambda       -0.4938603E-05
   maximum displ.:     0.0146665 α      in ANC's #3, #4, #1, ...

........................................................................
.............................. CYCLE   37 ..............................
........................................................................
   1    -10.7837275 -0.107837E+02  0.597E-02    1.32       0.0  T
   2    -10.7837275  0.568927E-07  0.372E-02    1.32       1.0  T
   3    -10.7837127  0.147371E-04  0.259E-02    1.33       1.4  T
   4    -10.7837275 -0.147424E-04  0.435E-03    1.32       8.1  T
   5    -10.7837275 -0.458766E-07  0.301E-03    1.32      11.8  T
   6    -10.7837276 -0.716922E-07  0.136E-03    1.32      26.0  T
   7    -10.7837276 -0.153223E-07  0.454E-04    1.32      77.8  T
   8    -10.7837276 -0.226887E-08  0.186E-04    1.32     190.3  T
     SCC iter.                  ...        0 min,  0.001 sec
     gradient                   ...        0 min,  0.000 sec
 * total energy  :   -10.5355988 Eh     change       -0.4254959E-05 Eh
   gradient norm :     0.0009218 Eh/α   predicted    -0.2467817E-05 ( -42.00%)
   displ. norm   :     0.0213748 α      lambda       -0.2952396E-05
   maximum displ.:     0.0158154 α      in ANC's #3, #2, #1, ...

   *** GEOMETRY OPTIMIZATION CONVERGED AFTER 37 ITERATIONS ***

------------------------------------------------------------------------
 total energy gain   :        -0.7748159 Eh     -486.2043 kcal/mol
 total RMSD          :         2.2701462 a0        1.2013 Å
 total power (kW/mol):       -54.9805124 (step)********** (real)
------------------------------------------------------------------------

 ANCopt (total)                0 d,  0 h,  0 min,  0.115 sec
 optimizer setup                ...        0 min,  0.000 sec (  0.023%)
 model hessian                  ...        0 min,  0.000 sec (  0.140%)
 ANC generation                 ...        0 min,  0.000 sec (  0.066%)
 coordinate transformation      ...        0 min,  0.000 sec (  0.068%)
 single point calculation       ...        0 min,  0.111 sec ( 96.777%)
 optimization log               ...        0 min,  0.001 sec (  0.878%)
 hessian update                 ...        0 min,  0.001 sec (  1.039%)
 rational function              ...        0 min,  0.001 sec (  0.479%)

================
 final structure:
================
8
 xtb: 6.5.1 (conda-forge)
Be           0.93376910753148        0.57518924398165       -1.06621159691172
C            1.02667074976012        0.56436117622112        0.44560752430729
C            1.05553418144873        0.54007646607769        1.76608976820075
C            1.09796381691621        0.51852411146706        2.99880292377229
C            1.12277857610237        0.48201306628036        4.44451664929432
H            1.81876200575156       -0.28493041017743        4.79939529167418
H            1.43859312077985        1.44680194258109        4.85193175023028
H            0.12992844170976        0.25090940356895        4.84336768943481

 Bond Distances (Angstroems)
 ---------------------------
Be1-C2=1.5147        C2-Be1=1.5147        C2-C3=1.3210         C3-C2=1.3210         C3-C4=1.2336         C4-C3=1.2336         
C4-C5=1.4464         C5-C4=1.4464         C5-H6=1.0948         C5-H7=1.0939         C5-H8=1.0946         H6-C5=1.0948         
H7-C5=1.0939         H8-C5=1.0946         
 C  H  Rav=1.0944 sigma=0.0004  Rmin=1.0939  Rmax=1.0948     3
 C  Be Rav=1.5147 sigma=0.0000  Rmin=1.5147  Rmax=1.5147     1
 C  C  Rav=1.3337 sigma=0.0873  Rmin=1.2336  Rmax=1.4464     3

 selected bond angles (degree)
 --------------------
C3-C2-Be1=177.65               C4-C3-C2=179.28                C5-C4-C3=178.92                H6-C5-C4=110.65                
H7-C5-C4=110.79                H7-C5-H6=108.28                H8-C5-C4=110.73                H8-C5-H6=108.10                
H8-C5-H7=108.20                

 selected dihedral angles (degree)
 ---------------------------------
C4-C3-C2-Be1=168.30           C5-C4-C3-C2=200.12            H6-C5-C4-C3=108.06            H7-C5-C4-C3=228.16            
H8-C5-C4-C3=348.23            

 CMA Distance (Angstroems)
 ---------------------------
R(CMA):  3.6264
           -------------------------------------------------
          |                Final Singlepoint                |
           -------------------------------------------------

          ...................................................
          :                      SETUP                      :
          :.................................................:
          :  # basis functions                  23          :
          :  # atomic orbitals                  23          :
          :  # shells                           13          :
          :  # electrons                        21          :
          :  max. iterations                   250          :
          :  Hamiltonian                  GFN2-xTB          :
          :  restarted?                      false          :
          :  GBSA solvation                  false          :
          :  PC potential                    false          :
          :  electronic temp.          300.0000000     K    :
          :  accuracy                    1.0000000          :
          :  -> integral cutoff          0.2500000E+02      :
          :  -> integral neglect         0.1000000E-07      :
          :  -> SCF convergence          0.1000000E-05 Eh   :
          :  -> wf. convergence          0.1000000E-03 e    :
          :  Broyden damping             0.4000000          :
          ...................................................

 iter      E             dE          RMSdq      gap      omega  full diag
   1    -10.7837276 -0.107837E+02  0.639E-05    1.32       0.0  T
   2    -10.7837276  0.149717E-09  0.923E-05    1.32     383.1  T
   3    -10.7837276 -0.104654E-09  0.648E-05    1.32     545.3  T

   *** convergence criteria satisfied after 3 iterations ***

         #    Occupation            Energy/Eh            Energy/eV
      -------------------------------------------------------------
         1        2.0000           -0.5637418             -15.3402
       ...           ...                  ...                  ...
         5        2.0000           -0.4488844             -12.2148
         6        2.0000           -0.4430542             -12.0561
         7        2.0000           -0.3784686             -10.2987
         8        2.0000           -0.3633471              -9.8872
         9        2.0000           -0.3633240              -9.8865
        10        1.5026           -0.2594305              -7.0595
        11        1.4974           -0.2594107              -7.0589 (HOMO)
        12                         -0.2108980              -5.7388 (LUMO)
        13                         -0.1207021              -3.2845
        14                         -0.1206683              -3.2836
        15                         -0.0009082              -0.0247
        16                         -0.0007492              -0.0204
       ...                                ...                  ...
        23                          1.4407356              39.2044
      -------------------------------------------------------------
                  HL-Gap            0.0485127 Eh            1.3201 eV
             Fermi-level           -0.2471314 Eh           -6.7248 eV

 SCC (total)                   0 d,  0 h,  0 min,  0.001 sec
 SCC setup                      ...        0 min,  0.000 sec (  4.009%)
 Dispersion                     ...        0 min,  0.000 sec (  7.144%)
 classical contributions        ...        0 min,  0.000 sec (  1.798%)
 integral evaluation            ...        0 min,  0.000 sec (  9.322%)
 iterations                     ...        0 min,  0.001 sec ( 37.090%)
 molecular gradient             ...        0 min,  0.001 sec ( 37.618%)
 printout                       ...        0 min,  0.000 sec (  2.425%)

         :::::::::::::::::::::::::::::::::::::::::::::::::::::
         ::                     SUMMARY                     ::
         :::::::::::::::::::::::::::::::::::::::::::::::::::::
         :: total energy             -10.535598783126 Eh    ::
         :: gradient norm              0.000923929559 Eh/a0 ::
         :: HOMO-LUMO gap              1.320099003501 eV    ::
         ::.................................................::
         :: SCC energy               -10.783727599210 Eh    ::
         :: -> isotropic ES           -0.027603872825 Eh    ::
         :: -> anisotropic ES          0.010899656188 Eh    ::
         :: -> anisotropic XC         -0.005534695049 Eh    ::
         :: -> dispersion             -0.003899485003 Eh    ::
         :: repulsion energy           0.248134447151 Eh    ::
         :: add. restraining           0.000000000000 Eh    ::
         :: total charge               0.000000000008 e     ::
         :::::::::::::::::::::::::::::::::::::::::::::::::::::

           -------------------------------------------------
          |                Property Printout                |
           -------------------------------------------------

    * Orbital Energies and Occupations

         #    Occupation            Energy/Eh            Energy/eV
      -------------------------------------------------------------
         1        2.0000           -0.5637418             -15.3402
         2        2.0000           -0.5392907             -14.6748
         3        2.0000           -0.4987941             -13.5729
         4        2.0000           -0.4490115             -12.2182
         5        2.0000           -0.4488844             -12.2148
         6        2.0000           -0.4430542             -12.0561
         7        2.0000           -0.3784686             -10.2987
         8        2.0000           -0.3633471              -9.8872
         9        2.0000           -0.3633240              -9.8865
        10        1.5026           -0.2594305              -7.0595
        11        1.4974           -0.2594107              -7.0589 (HOMO)
        12                         -0.2108980              -5.7388 (LUMO)
        13                         -0.1207021              -3.2845
        14                         -0.1206683              -3.2836
        15                         -0.0009082              -0.0247
        16                         -0.0007492              -0.0204
        17                          0.1425670               3.8794
        18                          0.2126884               5.7875
        19                          0.2583899               7.0311
        20                          0.2600783               7.0771
        21                          0.3941865              10.7264
        22                          0.6550379              17.8245
        23                          1.4407356              39.2044
      -------------------------------------------------------------
                  HL-Gap            0.0485127 Eh            1.3201 eV
             Fermi-level           -0.2471314 Eh           -6.7248 eV

     #   Z          covCN         q      C6AA      α(0)
     1   4 Be       0.846     0.465    63.697    23.922
     2   6 C        1.826    -0.340    41.926    10.461
     3   6 C        1.964    -0.036    32.019     9.138
     4   6 C        1.962    -0.105    33.967     9.412
     5   6 C        3.751    -0.071    21.926     6.678
     6   1 H        0.924     0.029     2.601     2.522
     7   1 H        0.924     0.029     2.598     2.521
     8   1 H        0.924     0.029     2.606     2.525

 Mol. C6AA /au·bohr⁶  :       1169.503223
 Mol. C8AA /au·bohr⁸  :      33853.579716
 Mol. α(0) /au        :         67.177959


Wiberg/Mayer (AO) data.
largest (>0.10) Wiberg bond orders for each atom

 ---------------------------------------------------------------------------
     #   Z sym  total        # sym  WBO       # sym  WBO       # sym  WBO
 ---------------------------------------------------------------------------
     1   4 Be   1.847 --     2 C    1.669     4 C    0.127
     2   6 C    3.275 --     1 Be   1.669     3 C    1.568
     3   6 C    3.960 --     4 C    2.276     2 C    1.568
     4   6 C    3.504 --     3 C    2.276     5 C    1.073     1 Be   0.127
     5   6 C    3.991 --     4 C    1.073     7 H    0.964     6 H    0.964
                             8 H    0.964
     6   1 H    0.983 --     5 C    0.964
     7   1 H    0.983 --     5 C    0.964
     8   1 H    0.983 --     5 C    0.964
 ---------------------------------------------------------------------------

Topologies differ in total number of bonds
Writing topology from bond orders to xtbtopo.mol

molecular dipole:
                 x           y           z       tot (Debye)
 q only:       -0.093       0.016      -1.741
   full:       -0.143       0.025      -2.750       7.000
molecular quadrupole (traceless):
                xx          xy          yy          xz          yz          zz
 q only:       -0.334      -0.103       0.243      -4.876      -2.786       0.092
  q+dip:       -6.352      -0.168      -5.486      -7.037      -4.660      11.838
   full:       -4.670      -0.171      -3.790      -7.289      -4.600       8.461

           -------------------------------------------------
          |                Geometry Summary                 |
           -------------------------------------------------

      molecular mass/u    :       60.0789489
   center of mass at/Å    :        1.0571265       0.5308017       2.0134302
  moments of inertia/u·Å² :        0.3185034E+01   0.2242718E+03   0.2242860E+03
rotational constants/cm⁻¹ :        0.5292763E+01   0.7516608E-01   0.7516132E-01

 * 5 selected distances

     #   Z          #   Z                                           value/Å
     1   4 Be       2   6 C                                       1.5147097 (max)
     3   6 C        4   6 C                                       1.2336315
     5   6 C        6   1 H                                       1.0947759
     5   6 C        7   1 H                                       1.0938664 (min)
     5   6 C        8   1 H                                       1.0946427

 * 3 distinct bonds (by element types)

   Z      Z             #   av. dist./Å        max./Å        min./Å
   1 H    6 C           3     1.0944283     1.0947759     1.0938664
   4 Be   6 C           1     1.5147097     1.5147097     1.5147097
   6 C    6 C           1     1.2336315     1.2336315     1.2336315


optimized geometry written to: xtbopt.xyz


           -------------------------------------------------
          | TOTAL ENERGY              -10.535598783126 Eh   |
          | GRADIENT NORM               0.000923929559 Eh/α |
          | HOMO-LUMO GAP               1.320099003501 eV   |
           -------------------------------------------------
########################################################################
[WARNING] Runtime exception occurred
-3- restart_readRestart: Dimension missmatch in restart file.
-2- restart_readRestart: Multiplicity missmatch in restart file.
-1- restart_readRestart: Number of electron missmatch in restart file.
########################################################################

------------------------------------------------------------------------
 * finished run on 2025/06/07 at 03:27:55.594     
------------------------------------------------------------------------
Note: The following floating-point exceptions are signalling: IEEE_UNDERFLOW_FLAG
normal termination of xtb
 total:
 * wall-time:     0 d,  0 h,  0 min,  0.156 sec
 *  cpu-time:     0 d,  0 h,  0 min,  2.236 sec
 * ratio c/w:    14.353 speedup
 SCF:
 * wall-time:     0 d,  0 h,  0 min,  0.036 sec
 *  cpu-time:     0 d,  0 h,  0 min,  0.487 sec
 * ratio c/w:    13.536 speedup
 ANC optimizer:
 * wall-time:     0 d,  0 h,  0 min,  0.117 sec
 *  cpu-time:     0 d,  0 h,  0 min,  1.716 sec
 * ratio c/w:    14.717 speedup

