      -----------------------------------------------------------      
     |                   =====================                   |     
     |                           x T B                           |     
     |                   =====================                   |     
     |                         S. Grimme                         |     
     |          Mulliken Center for Theoretical Chemistry        |     
     |                    University of Bonn                     |     
      -----------------------------------------------------------      

   * xtb version 6.5.1 (conda-forge) compiled by 'runner@Mac-1657629245115.local' on 2022-07-12

   xtb is free software: you can redistribute it and/or modify it under
   the terms of the GNU Lesser General Public License as published by
   the Free Software Foundation, either version 3 of the License, or
   (at your option) any later version.
   
   xtb is distributed in the hope that it will be useful,
   but WITHOUT ANY WARRANTY; without even the implied warranty of
   MERCHANTABILITY or FITNESS FOR A PARTICULAR PURPOSE.  See the
   GNU Lesser General Public License for more details.
   
   Cite this work as:
   * C. Bannwarth, E. Caldeweyher, S. Ehlert, A. Hansen, P. Pracht,
     J. Seibert, S. Spicher, S. Grimme, WIREs Comput. Mol. Sci., 2020, 11,
     e01493. DOI: 10.1002/wcms.1493
   
   for GFN2-xTB:
   * C. Bannwarth, S. Ehlert and S. Grimme., J. Chem. Theory Comput., 2019,
     15, 1652-1671. DOI: 10.1021/acs.jctc.8b01176
   for GFN1-xTB:
   * S. Grimme, C. Bannwarth, P. Shushkov, J. Chem. Theory Comput., 2017,
     13, 1989-2009. DOI: 10.1021/acs.jctc.7b00118
   for GFN0-xTB:
   * P. Pracht, E. Caldeweyher, S. Ehlert, S. Grimme, ChemRxiv, 2019, preprint.
     DOI: 10.26434/chemrxiv.8326202.v1
   for GFN-FF:
   * S. Spicher and S. Grimme, Angew. Chem. Int. Ed., 2020, 59, 15665-15673.
     DOI: 10.1002/anie.202004239
   
   for ALPB and GBSA implicit solvation:
   * S. Ehlert, M. Stahn, S. Spicher, S. Grimme, J. Chem. Theory Comput.,
     2021, 17, 4250-4261. DOI: 10.1021/acs.jctc.1c00471
   
   for DFT-D4:
   * E. Caldeweyher, C. Bannwarth and S. Grimme, J. Chem. Phys., 2017,
     147, 034112. DOI: 10.1063/1.4993215
   * E. Caldeweyher, S. Ehlert, A. Hansen, H. Neugebauer, S. Spicher,
     C. Bannwarth and S. Grimme, J. Chem. Phys., 2019, 150, 154122.
     DOI: 10.1063/1.5090222
   * E. Caldeweyher, J.-M. Mewes, S. Ehlert and S. Grimme, Phys. Chem. Chem. Phys.
     2020, 22, 8499-8512. DOI: 10.1039/D0CP00502A
   
   for sTDA-xTB:
   * S. Grimme and C. Bannwarth, J. Chem. Phys., 2016, 145, 054103.
     DOI: 10.1063/1.4959605
   
   in the mass-spec context:
   * V. Asgeirsson, C. Bauer and S. Grimme, Chem. Sci., 2017, 8, 4879.
     DOI: 10.1039/c7sc00601b
   * J. Koopman and S. Grimme, ACS Omega 2019, 4, 12, 15120-15133.
     DOI: 10.1021/acsomega.9b02011
   
   for metadynamics refer to:
   * S. Grimme, J. Chem. Theory Comput., 2019, 155, 2847-2862
     DOI: 10.1021/acs.jctc.9b00143
   
   for SPH calculations refer to:
   * S. Spicher and S. Grimme, J. Chem. Theory Comput., 2021, 17, 1701-1714
     DOI: 10.1021/acs.jctc.0c01306
   
   with help from (in alphabetical order)
   P. Atkinson, C. Bannwarth, F. Bohle, G. Brandenburg, E. Caldeweyher
   M. Checinski, S. Dohm, S. Ehlert, S. Ehrlich, I. Gerasimov, C. Hölzer
   A. Katbashev, J. Koopman, C. Lavigne, S. Lehtola, F. März, M. Müller,
   F. Musil, H. Neugebauer, J. Pisarek, C. Plett, P. Pracht, F. Pultar,
   J. Seibert, P. Shushkov, S. Spicher, M. Stahn, M. Steiner, T. Strunk,
   J. Stückrath, T. Rose, and J. Unsleber
   
 * started run on 2025/06/07 at 03:27:55.605     

           -------------------------------------------------
          |                Calculation Setup                |
           -------------------------------------------------

          program call               : xtb BeC4H4.xyz --gfn 2 --opt
          coordinate file            : BeC4H4.xyz
          omp threads                :                    16

   ID    Z sym.   atoms
    1    4 Be     1
    2    6 C      2-5
    3    1 H      6-9

molecular fragmentation (1/2 indicates fragments):
122222222
# atoms in fragment 1/2:     1     8
 fragment masses (1/2) :        9.01       52.07
CMA distance (Bohr)    :   5.493
constraining FC (au)   :  0.0500

           -------------------------------------------------
          |                 G F N 2 - x T B                 |
           -------------------------------------------------

        Reference                      10.1021/acs.jctc.8b01176
      * Hamiltonian:
        H0-scaling (s, p, d)           1.850000    2.230000    2.230000
        zeta-weighting                 0.500000
      * Dispersion:
        s8                             2.700000
        a1                             0.520000
        a2                             5.000000
        s9                             5.000000
      * Repulsion:
        kExp                           1.500000    1.000000
        rExp                           1.000000
      * Coulomb:
        alpha                          2.000000
        third order                    shell-resolved
        anisotropic                    true
        a3                             3.000000
        a5                             4.000000
        cn-shift                       1.200000
        cn-exp                         4.000000
        max-rad                        5.000000


          ...................................................
          :                      SETUP                      :
          :.................................................:
          :  # basis functions                  24          :
          :  # atomic orbitals                  24          :
          :  # shells                           14          :
          :  # electrons                        22          :
          :  max. iterations                   250          :
          :  Hamiltonian                  GFN2-xTB          :
          :  restarted?                      false          :
          :  GBSA solvation                  false          :
          :  PC potential                    false          :
          :  electronic temp.          300.0000000     K    :
          :  accuracy                    1.0000000          :
          :  -> integral cutoff          0.2500000E+02      :
          :  -> integral neglect         0.1000000E-07      :
          :  -> SCF convergence          0.1000000E-05 Eh   :
          :  -> wf. convergence          0.1000000E-03 e    :
          :  Broyden damping             0.4000000          :
          ...................................................

 iter      E             dE          RMSdq      gap      omega  full diag
   1     11.5439856  0.115440E+02  0.253E+01    0.25       0.0  T
   2     -6.5209258 -0.180649E+02  0.159E+01    0.04       1.0  T
   3     -2.0371813  0.448374E+01  0.214E+01    1.03       1.0  T
   4     -7.7181822 -0.568100E+01  0.109E+01    1.01       1.0  T
   5     -8.4848857 -0.766703E+00  0.895E+00    0.12       1.0  T
   6     -8.5686328 -0.837471E-01  0.782E+00    0.75       1.0  T
   7     -8.8224049 -0.253772E+00  0.703E+00    0.50       1.0  T
   8     -8.8575841 -0.351792E-01  0.676E+00    0.21       1.0  T
   9     -9.7278111 -0.870227E+00  0.621E+00    0.33       1.0  T
  10     -9.9961547 -0.268344E+00  0.644E+00    0.24       1.0  T
  11     -9.4504066  0.545748E+00  0.641E+00    0.43       1.0  T
  12     -9.2816835  0.168723E+00  0.653E+00    0.44       1.0  T
  13     -9.8647293 -0.583046E+00  0.514E+00    0.33       1.0  T
  14     13.9586092  0.238233E+02  0.292E+01    0.74       1.0  T
  15     14.1714975  0.212888E+00  0.273E+01    0.73       1.0  T
  16     14.1065039 -0.649936E-01  0.270E+01    0.73       1.0  T
  17     14.3845964  0.278092E+00  0.280E+01    0.74       1.0  T
  18     11.8128511 -0.257175E+01  0.259E+01    0.74       1.0  T
  19     11.1612257 -0.651625E+00  0.252E+01    0.72       1.0  T
  20     -9.9582884 -0.211195E+02  0.904E+00    0.27       1.0  T
  21     -9.6384161  0.319872E+00  0.904E+00    0.37       1.0  T
  22     -9.2217759  0.416640E+00  0.960E+00    0.41       1.0  T
  23     -9.9712930 -0.749517E+00  0.845E+00    0.32       1.0  T
  24     -9.4593807  0.511912E+00  0.939E+00    0.41       1.0  T
  25     -9.2858485  0.173532E+00  0.959E+00    0.42       1.0  T
  26     -9.3226407 -0.367922E-01  0.956E+00    0.42       1.0  T
  27     -9.8625299 -0.539889E+00  0.579E+00    0.23       1.0  T
  28     -9.6937792  0.168751E+00  0.514E+00    0.22       1.0  T
  29    -10.1630482 -0.469269E+00  0.654E+00    0.20       1.0  T
  30    -10.1421767  0.208715E-01  0.672E+00    0.20       1.0  T
  31     -8.1295023  0.201267E+01  0.113E+01    0.38       1.0  T
  32     -4.1458733  0.398363E+01  0.122E+01    0.42       1.0  T
  33     10.2233272  0.143692E+02  0.217E+01    0.73       1.0  T
  34    -10.1009458 -0.203243E+02  0.875E+00    0.25       1.0  T
  35     -9.0185432  0.108240E+01  0.751E+00    0.44       1.0  T
  36     -8.9929210  0.256221E-01  0.717E+00    0.35       1.0  T
  37     -8.9494473  0.434737E-01  0.695E+00    0.33       1.0  T
  38     -8.9118580  0.375893E-01  0.660E+00    0.25       1.0  T
  39     -8.8536303  0.582277E-01  0.688E+00    0.22       1.0  T
  40     -8.9601333 -0.106503E+00  0.625E+00    0.19       1.0  T
  41    -10.0293847 -0.106925E+01  0.763E+00    0.29       1.0  T
  42     -9.9751271  0.542576E-01  0.974E+00    0.44       1.0  T
  43     -9.9237843  0.513428E-01  0.708E+00    0.23       1.0  T
  44    -10.1008431 -0.177059E+00  0.859E+00    0.34       1.0  T
  45    -10.0249106  0.759326E-01  0.778E+00    0.27       1.0  T
  46     -9.9837952  0.411154E-01  0.103E+01    0.47       1.0  T
  47     -9.9934491 -0.965390E-02  0.101E+01    0.46       1.0  T
  48     -9.8148287  0.178620E+00  0.113E+01    0.52       1.0  T
  49     -9.7410041  0.738246E-01  0.115E+01    0.52       1.0  T
  50     -9.7710166 -0.300125E-01  0.114E+01    0.52       1.0  T
  51     -9.8635531 -0.925365E-01  0.110E+01    0.51       1.0  T
  52     -9.9518400 -0.882869E-01  0.105E+01    0.49       1.0  T
  53    -10.0097217 -0.578817E-01  0.101E+01    0.46       1.0  T
  54    -10.0154867 -0.576500E-02  0.999E+00    0.45       1.0  T
  55    -10.0165603 -0.107353E-02  0.998E+00    0.45       1.0  T
  56    -10.0189846 -0.242438E-02  0.997E+00    0.45       1.0  T
  57    -10.0200019 -0.101725E-02  0.994E+00    0.45       1.0  T
  58    -10.0191725  0.829404E-03  0.995E+00    0.45       1.0  T
  59    -10.0177359  0.143662E-02  0.997E+00    0.45       1.0  T
  60    -10.0245409 -0.680507E-02  0.990E+00    0.45       1.0  T
  61    -10.0317505 -0.720957E-02  0.982E+00    0.44       1.0  T
  62    -10.0328966 -0.114614E-02  0.984E+00    0.44       1.0  T
  63    -10.0321120  0.784623E-03  0.986E+00    0.44       1.0  T
  64    -10.0365343 -0.442231E-02  0.979E+00    0.43       1.0  T
  65    -10.0379106 -0.137629E-02  0.978E+00    0.43       1.0  T
  66    -10.0418425 -0.393183E-02  0.926E+00    0.37       1.0  T
  67    -10.0432415 -0.139906E-02  0.953E+00    0.40       1.0  T
  68    -10.0162974  0.269441E-01  0.894E+00    0.34       1.0  T
  69    -10.0270095 -0.107121E-01  0.907E+00    0.35       1.0  T
  70    -10.0040871  0.229224E-01  0.888E+00    0.33       1.0  T
  71     -9.9985090  0.557816E-02  0.884E+00    0.32       1.0  T
  72    -10.0087714 -0.102624E-01  0.890E+00    0.33       1.0  T
  73    -10.0159484 -0.717707E-02  0.893E+00    0.34       1.0  T
  74    -10.0194289 -0.348045E-02  0.888E+00    0.34       1.0  T
  75    -10.0187691  0.659742E-03  0.888E+00    0.34       1.0  T
  76    -10.0166499  0.211925E-02  0.888E+00    0.34       1.0  T
  77    -10.0107540  0.589591E-02  0.885E+00    0.33       1.0  T
  78    -10.0103790  0.375014E-03  0.885E+00    0.33       1.0  T
  79    -10.0172098 -0.683082E-02  0.860E+00    0.33       1.0  T
  80    -10.0059147  0.112951E-01  0.803E+00    0.30       1.0  T
  81     -9.9903812  0.155335E-01  0.754E+00    0.28       1.0  T
  82    -10.0026893 -0.123081E-01  0.729E+00    0.28       1.0  T
  83    -10.0011030  0.158630E-02  0.724E+00    0.29       1.0  T
  84     -9.8981445  0.102959E+00  0.742E+00    0.26       1.0  T
  85     -9.8999388 -0.179429E-02  0.743E+00    0.26       1.0  T
  86     -9.8646700  0.352688E-01  0.748E+00    0.25       1.0  T
  87     -9.8675607 -0.289071E-02  0.747E+00    0.26       1.0  T
  88     -9.8580901  0.947054E-02  0.750E+00    0.25       1.0  T
  89     -9.8880442 -0.299540E-01  0.751E+00    0.26       1.0  T
  90     -9.8701750  0.178691E-01  0.750E+00    0.25       1.0  T
  91     -9.8610430  0.913208E-02  0.747E+00    0.25       1.0  T
  92     -9.8738901 -0.128471E-01  0.742E+00    0.25       1.0  T
  93     -9.9023964 -0.285063E-01  0.707E+00    0.24       1.0  T
  94     -9.7737817  0.128615E+00  0.583E+00    0.20       1.0  T
  95    -10.0977253 -0.323944E+00  0.651E+00    0.23       1.0  T
  96     -9.9744492  0.123276E+00  0.527E+00    0.21       1.0  T
  97    -10.0944009 -0.119952E+00  0.789E+00    0.29       1.0  T
  98    -10.0970712 -0.267027E-02  0.792E+00    0.29       1.0  T
  99    -10.1643229 -0.672517E-01  0.655E+00    0.22       1.0  T
 100    -10.1824209 -0.180980E-01  0.596E+00    0.22       1.0  T
 101    -10.1863469 -0.392608E-02  0.557E+00    0.21       1.0  T
 102    -10.1279973  0.583497E-01  0.476E+00    0.21       1.0  T
 103    -10.1826974 -0.547001E-01  0.548E+00    0.20       1.0  T
 104    -10.0878381  0.948593E-01  0.448E+00    0.21       1.0  T
 105    -10.1923418 -0.104504E+00  0.537E+00    0.20       1.0  T
 106    -10.0960353  0.963065E-01  0.433E+00    0.21       1.0  T
 107    -10.1639021 -0.678668E-01  0.459E+00    0.20       1.0  T
 108    -10.1081369  0.557652E-01  0.417E+00    0.21       1.0  T
 109    -10.1740110 -0.658741E-01  0.442E+00    0.21       1.0  T
 110    -10.1631412  0.108697E-01  0.421E+00    0.21       1.0  T
 111    -10.2006842 -0.375429E-01  0.436E+00    0.22       1.0  T
 112    -10.2003893  0.294906E-03  0.495E+00    0.24       1.0  T
 113    -10.0061317  0.194258E+00  0.723E+00    0.30       1.0  T
 114     -9.7706442  0.235487E+00  0.878E+00    0.35       1.0  T
 115     -9.9384735 -0.167829E+00  0.802E+00    0.32       1.0  T
 116     -9.8894725  0.490010E-01  0.817E+00    0.33       1.0  T
 117     -9.9246896 -0.352171E-01  0.797E+00    0.32       1.0  T
 118     -9.9506250 -0.259354E-01  0.776E+00    0.32       1.0  T
 119     -9.9846581 -0.340331E-01  0.748E+00    0.31       1.0  T
 120     -9.9958077 -0.111496E-01  0.737E+00    0.32       1.0  T
 121     -9.9952900  0.517781E-03  0.737E+00    0.32       1.0  T
 122    -10.0093640 -0.140740E-01  0.717E+00    0.31       1.0  T
 123     -9.9034409  0.105923E+00  0.773E+00    0.33       1.0  T
 124     -9.8295122  0.739287E-01  0.808E+00    0.34       1.0  T
 125     -9.8350274 -0.551525E-02  0.805E+00    0.34       1.0  T
 126     -9.8279854  0.704206E-02  0.805E+00    0.34       1.0  T
 127     -9.8068396  0.211458E-01  0.826E+00    0.35       1.0  T
 128     -9.8108909 -0.405134E-02  0.830E+00    0.34       1.0  T
 129     -9.8224580 -0.115671E-01  0.827E+00    0.34       1.0  T
 130     -9.8303488 -0.789083E-02  0.827E+00    0.34       1.0  T
 131     -9.7085623  0.121787E+00  0.863E+00    0.36       1.0  T
 132     -9.7193821 -0.108199E-01  0.856E+00    0.36       1.0  T
 133     -9.6281312  0.912510E-01  0.864E+00    0.37       1.0  T
 134     -9.7813430 -0.153212E+00  0.803E+00    0.35       1.0  T
 135     -9.9810289 -0.199686E+00  0.652E+00    0.30       1.0  T
 136    -10.1369296 -0.155901E+00  0.490E+00    0.23       1.0  T
 137    -10.0986377  0.382919E-01  0.519E+00    0.19       1.0  T
 138     -9.9295608  0.169077E+00  0.574E+00    0.23       1.0  T
 139     -9.7712415  0.158319E+00  0.589E+00    0.25       1.0  T
 140     -9.9218651 -0.150624E+00  0.563E+00    0.23       1.0  T
 141     -9.8999139  0.219512E-01  0.562E+00    0.23       1.0  T
 142     -9.5669006  0.333013E+00  0.602E+00    0.31       1.0  T
 143     -9.5936735 -0.267729E-01  0.656E+00    0.38       1.0  T
 144     -9.5802664  0.134071E-01  0.663E+00    0.39       1.0  T
 145     -9.5260366  0.542298E-01  0.684E+00    0.42       1.0  T
 146     -9.4336698  0.923668E-01  0.718E+00    0.46       1.0  T
 147     -9.5704073 -0.136737E+00  0.676E+00    0.41       1.0  T
 148     -9.9871349 -0.416728E+00  0.594E+00    0.24       1.0  T
 149    -10.1808437 -0.193709E+00  0.508E+00    0.18       1.0  T
 150     -9.8513941  0.329450E+00  0.515E+00    0.28       1.0  T
 151     -9.7499739  0.101420E+00  0.490E+00    0.28       1.0  T
 152     -9.6867309  0.632430E-01  0.485E+00    0.28       1.0  T
 153     -9.6272145  0.595164E-01  0.496E+00    0.29       1.0  T
 154     -9.6287947 -0.158021E-02  0.494E+00    0.29       1.0  T
 155     -9.6058560  0.229387E-01  0.501E+00    0.29       1.0  T
 156     -9.7105506 -0.104695E+00  0.478E+00    0.28       1.0  T
 157     -9.7969634 -0.864128E-01  0.445E+00    0.28       1.0  T
 158    -10.0974784 -0.300515E+00  0.345E+00    0.24       1.0  T
 159    -10.1667693 -0.692909E-01  0.290E+00    0.25       1.0  T
 160    -10.1719235 -0.515417E-02  0.280E+00    0.25       1.0  T
 161    -10.2115472 -0.396237E-01  0.284E+00    0.24       1.0  T
 162    -10.2210410 -0.949381E-02  0.294E+00    0.24       1.0  T
 163    -10.2443148 -0.232739E-01  0.288E+00    0.23       1.0  T
 164    -10.2457084 -0.139353E-02  0.292E+00    0.23       1.0  T
 165    -10.2445394  0.116899E-02  0.304E+00    0.24       1.0  T
 166    -10.2335046  0.110348E-01  0.330E+00    0.24       1.0  T
 167    -10.2091843  0.243203E-01  0.342E+00    0.24       1.0  T
 168    -10.2373242 -0.281399E-01  0.314E+00    0.23       1.0  T
 169    -10.2505957 -0.132716E-01  0.304E+00    0.22       1.0  T
 170    -10.2355937  0.150021E-01  0.318E+00    0.22       1.0  T
 171    -10.1990087  0.365850E-01  0.344E+00    0.23       1.0  T
 172    -10.1635225  0.354862E-01  0.368E+00    0.24       1.0  T
 173    -10.1527557  0.107668E-01  0.375E+00    0.24       1.0  T
 174    -10.1492759  0.347979E-02  0.376E+00    0.24       1.0  T
 175    -10.1541169 -0.484099E-02  0.374E+00    0.24       1.0  T
 176    -10.1717093 -0.175924E-01  0.367E+00    0.24       1.0  T
 177    -10.1989145 -0.272052E-01  0.357E+00    0.23       1.0  T
 178    -10.2259851 -0.270706E-01  0.351E+00    0.23       1.0  T
 179    -10.2432402 -0.172552E-01  0.352E+00    0.23       1.0  T
 180    -10.2470572 -0.381698E-02  0.355E+00    0.23       1.0  T
 181    -10.2463608  0.696397E-03  0.351E+00    0.23       1.0  T
 182    -10.2486718 -0.231096E-02  0.336E+00    0.23       1.0  T
 183    -10.2467478  0.192401E-02  0.327E+00    0.23       1.0  T
 184    -10.2423622  0.438554E-02  0.326E+00    0.23       1.0  T
 185    -10.2401986  0.216359E-02  0.326E+00    0.23       1.0  T
 186    -10.2397490  0.449587E-03  0.326E+00    0.23       1.0  T
 187    -10.2392319  0.517168E-03  0.326E+00    0.24       1.0  T
 188    -10.2367058  0.252608E-02  0.324E+00    0.24       1.0  T
 189    -10.2333333  0.337252E-02  0.323E+00    0.24       1.0  T
 190    -10.2310329  0.230038E-02  0.323E+00    0.24       1.0  T
 191    -10.2302660  0.766847E-03  0.322E+00    0.24       1.0  T
 192    -10.2306311 -0.365035E-03  0.320E+00    0.24       1.0  T
 193    -10.2397420 -0.911091E-02  0.297E+00    0.25       1.0  T
 194    -10.2493717 -0.962975E-02  0.263E+00    0.25       1.0  T
 195    -10.2547836 -0.541186E-02  0.230E+00    0.26       1.0  T
 196    -10.2571669 -0.238333E-02  0.201E+00    0.26       1.0  T
 197    -10.2553817  0.178524E-02  0.177E+00    0.26       1.0  T
 198    -10.2528163  0.256539E-02  0.161E+00    0.27       1.0  T
 199    -10.2556601 -0.284385E-02  0.137E+00    0.28       1.0  T
 200    -10.2605847 -0.492458E-02  0.105E+00    0.28       1.0  T
 201    -10.2608613 -0.276541E-03  0.921E-01    0.28       1.0  T
 202    -10.2572418  0.361943E-02  0.101E+00    0.28       1.0  T
 203    -10.2567879  0.453896E-03  0.985E-01    0.29       1.0  T
 204    -10.2584879 -0.169998E-02  0.883E-01    0.29       1.0  T
 205    -10.2591157 -0.627825E-03  0.830E-01    0.29       1.0  T
 206    -10.2578127  0.130299E-02  0.868E-01    0.29       1.0  T
 207    -10.2582135 -0.400702E-03  0.840E-01    0.29       1.0  T
 208    -10.2585454 -0.331959E-03  0.802E-01    0.29       1.0  T
 209    -10.2610360 -0.249061E-02  0.679E-01    0.29       1.0  T
 210    -10.2597807  0.125530E-02  0.722E-01    0.28       1.0  T
 211    -10.2622723 -0.249156E-02  0.598E-01    0.28       1.0  T
 212    -10.2618881  0.384167E-03  0.602E-01    0.28       1.0  T
 213    -10.2638809 -0.199280E-02  0.476E-01    0.28       1.0  T
 214    -10.2640739 -0.192968E-03  0.439E-01    0.28       1.0  T
 215    -10.2647963 -0.722456E-03  0.357E-01    0.28       1.0  T
 216    -10.2651118 -0.315478E-03  0.296E-01    0.28       1.0  T
 217    -10.2654384 -0.326633E-03  0.225E-01    0.28       1.0  T
 218    -10.2656089 -0.170411E-03  0.163E-01    0.28       1.0  T
 219    -10.2657213 -0.112429E-03  0.103E-01    0.28       1.0  T
 220    -10.2657693 -0.480100E-04  0.583E-02    0.28       1.0  T
 221    -10.2657805 -0.112146E-04  0.419E-02    0.28       1.0  T
 222    -10.2657810 -0.446470E-06  0.416E-02    0.28       1.0  T
 223    -10.2657833 -0.232016E-05  0.346E-02    0.28       1.0  T
 224    -10.2657841 -0.858470E-06  0.270E-02    0.28       1.2  T
 225    -10.2657841  0.239264E-07  0.233E-02    0.28       1.4  T
 226    -10.2657852 -0.107643E-05  0.183E-02    0.28       1.8  T
 227    -10.2657866 -0.145671E-05  0.118E-02    0.28       2.8  T
 228    -10.2657873 -0.658275E-06  0.855E-03    0.28       3.9  T
 229    -10.2657875 -0.179064E-06  0.765E-03    0.28       4.4  T
 230    -10.2657875 -0.307782E-07  0.671E-03    0.28       5.0  T
 231    -10.2657876 -0.380028E-07  0.502E-03    0.28       6.6  T
 232    -10.2657876 -0.412400E-07  0.270E-03    0.28      12.3  T
 233    -10.2657876 -0.859176E-08  0.139E-03    0.28      24.0  T
 234    -10.2657876  0.231780E-07  0.150E-03    0.28      22.2  T
 235    -10.2657876 -0.256502E-07  0.107E-03    0.28      31.2  T
 236    -10.2657876 -0.889841E-08  0.500E-04    0.28      66.7  T
 237    -10.2657876 -0.556922E-09  0.259E-04    0.28     128.5  T

   *** convergence criteria satisfied after 237 iterations ***

         #    Occupation            Energy/Eh            Energy/eV
      -------------------------------------------------------------
         1        2.0000           -0.6510951             -17.7172
       ...           ...                  ...                  ...
         5        2.0000           -0.4801702             -13.0661
         6        2.0000           -0.4057449             -11.0409
         7        2.0000           -0.3751829             -10.2092
         8        2.0000           -0.3510422              -9.5523
         9        2.0000           -0.3435050              -9.3472
        10        2.0000           -0.3326960              -9.0531
        11        1.9904           -0.3074877              -8.3672 (HOMO)
        12        0.0096           -0.2973510              -8.0913 (LUMO)
        13                         -0.2799674              -7.6183
        14                         -0.2702043              -7.3526
        15                         -0.2629729              -7.1559
        16                         -0.2492553              -6.7826
       ...                                ...                  ...
        24                          0.4304911              11.7143
      -------------------------------------------------------------
                  HL-Gap            0.0101367 Eh            0.2758 eV
             Fermi-level           -0.3024194 Eh           -8.2293 eV

 SCC (total)                   0 d,  0 h,  0 min,  0.200 sec
 SCC setup                      ...        0 min,  0.000 sec (  0.135%)
 Dispersion                     ...        0 min,  0.000 sec (  0.080%)
 classical contributions        ...        0 min,  0.000 sec (  0.057%)
 integral evaluation            ...        0 min,  0.000 sec (  0.085%)
 iterations                     ...        0 min,  0.199 sec ( 99.444%)
 molecular gradient             ...        0 min,  0.000 sec (  0.176%)
 printout                       ...        0 min,  0.000 sec (  0.017%)

         :::::::::::::::::::::::::::::::::::::::::::::::::::::
         ::                     SUMMARY                     ::
         :::::::::::::::::::::::::::::::::::::::::::::::::::::
         :: total energy             -10.210057558627 Eh    ::
         :: gradient norm              0.309257324615 Eh/a0 ::
         :: HOMO-LUMO gap              0.275834538651 eV    ::
         ::.................................................::
         :: SCC energy               -10.265787615262 Eh    ::
         :: -> isotropic ES           -0.076982573493 Eh    ::
         :: -> anisotropic ES          0.012280047556 Eh    ::
         :: -> anisotropic XC          0.001579074132 Eh    ::
         :: -> dispersion             -0.007055944052 Eh    ::
         :: repulsion energy           0.055722414601 Eh    ::
         :: add. restraining           0.000000000000 Eh    ::
         :: total charge              -0.000000000109 e     ::
         :::::::::::::::::::::::::::::::::::::::::::::::::::::

      ----------------------------------------------------------- 
     |                   =====================                   |
     |                        A N C O P T                        |
     |                   =====================                   |
     |               Approximate Normal Coordinate               |
     |                Rational Function Optimizer                |
      ----------------------------------------------------------- 

          ...................................................
          :                      SETUP                      :
          :.................................................:
          :   optimization level            normal          :
          :   max. optcycles                   200          :
          :   ANC micro-cycles                  20          :
          :   degrees of freedom                21          :
          :.................................................:
          :   RF solver                   davidson          :
          :   write xtbopt.log                true          :
          :   linear?                        false          :
          :   energy convergence         0.5000000E-05 Eh   :
          :   grad. convergence          0.1000000E-02 Eh/α :
          :   maximium RF displ.         1.0000000          :
          :   Hlow (freq-cutoff)         0.1000000E-01      :
          :   Hmax (freq-cutoff)         5.0000000          :
          :   S6 in model hess.         20.0000000          :
          ...................................................

generating ANC from model Hessian ...
Using Lindh-Hessian (1995)
 Shifting diagonal of input Hessian by    9.9513008088746770E-003
 Lowest  eigenvalues of input Hessian
    0.000000    0.000000    0.000000    0.000000    0.000000    0.000000
    0.010000    0.010311    0.010530    0.011015    0.011381    0.011937
    0.012461    0.013806    0.020296    0.027591    0.035998    0.049967
 Highest eigenvalues
    0.233142    0.247297    0.263500    0.276082    0.305789    0.338846


........................................................................
.............................. CYCLE    1 ..............................
........................................................................
   1    -10.2657876 -0.102658E+02  0.228E-04    0.28       0.0  T
   2    -10.2657876  0.774731E-08  0.730E-04    0.28      45.7  T
   3    -10.2657876 -0.200989E-09  0.779E-04    0.28      42.8  T
     SCC iter.                  ...        0 min,  0.000 sec
     gradient                   ...        0 min,  0.000 sec
 * total energy  :   -10.2100576 Eh     change        0.6184358E-08 Eh
   gradient norm :     0.3089327 Eh/α   predicted     0.0000000E+00 (-100.00%)
   displ. norm   :     0.8363382 α      lambda       -0.2493146E+00
   maximum displ.:     0.4852345 α      in ANC's #9, #15, #17, ...

........................................................................
.............................. CYCLE    2 ..............................
........................................................................
   1    -10.4478037 -0.104478E+02  0.203E+00    0.31       0.0  T
   2    -10.2073484  0.240455E+00  0.449E+00    0.30       1.0  T
   3    -10.3016553 -0.943069E-01  0.314E+00    0.32       1.0  T
   4    -10.1884783  0.113177E+00  0.501E+00    0.48       1.0  T
   5    -10.1719159  0.165624E-01  0.496E+00    0.52       1.0  T
   6     -9.6714585  0.500457E+00  0.738E+00    0.55       1.0  T
   7     -9.1277589  0.543700E+00  0.869E+00    0.62       1.0  T
   8     -9.0779591  0.497998E-01  0.876E+00    0.62       1.0  T
   9    -10.4042829 -0.132632E+01  0.194E+00    0.24       1.0  T
  10    -10.4142866 -0.100037E-01  0.207E+00    0.32       1.0  T
  11    -10.4467959 -0.325093E-01  0.149E+00    0.29       1.0  T
  12    -10.4477809 -0.985077E-03  0.129E+00    0.29       1.0  T
  13    -10.4515073 -0.372638E-02  0.810E-01    0.29       1.0  T
  14    -10.4514974  0.993913E-05  0.739E-01    0.29       1.0  T
  15    -10.4518982 -0.400806E-03  0.476E-01    0.28       1.0  T
  16    -10.4574677 -0.556955E-02  0.246E-01    0.28       1.0  T
  17    -10.4579941 -0.526322E-03  0.326E-01    0.28       1.0  T
  18    -10.4578192  0.174854E-03  0.354E-01    0.28       1.0  T
  19    -10.4577653  0.539367E-04  0.360E-01    0.28       1.0  T
  20    -10.4578830 -0.117720E-03  0.324E-01    0.28       1.0  T
  21    -10.4579769 -0.939456E-04  0.283E-01    0.28       1.0  T
  22    -10.4580574 -0.804804E-04  0.239E-01    0.28       1.0  T
  23    -10.4581446 -0.872179E-04  0.169E-01    0.28       1.0  T
  24    -10.4581791 -0.344666E-04  0.118E-01    0.28       1.0  T
  25    -10.4582045 -0.253735E-04  0.463E-02    0.28       1.0  T
  26    -10.4582086 -0.413658E-05  0.245E-02    0.28       1.4  T
  27    -10.4582099 -0.128956E-05  0.138E-02    0.28       2.4  T
  28    -10.4582105 -0.599994E-06  0.369E-03    0.28       9.0  T
  29    -10.4582105 -0.434795E-07  0.129E-03    0.28      25.8  T
  30    -10.4582105 -0.412470E-08  0.623E-04    0.28      53.5  T
  31    -10.4582105 -0.116555E-08  0.106E-04    0.28     313.5  T
     SCC iter.                  ...        0 min,  0.004 sec
     gradient                   ...        0 min,  0.001 sec
 * total energy  :   -10.4134615 Eh     change       -0.2034040E+00 Eh
   gradient norm :     0.2634634 Eh/α   predicted    -0.2118503E+00 (   4.15%)
   displ. norm   :     0.9514436 α      lambda       -0.2479138E+00
   maximum displ.:     0.7234439 α      in ANC's #15, #12, #17, ...

........................................................................
.............................. CYCLE    3 ..............................
........................................................................
   1    -10.7282687 -0.107283E+02  0.338E+00    0.17       0.0  T
   2    -10.4949208  0.233348E+00  0.518E+00    0.61       1.0  T
   3    -10.2440264  0.250894E+00  0.514E+00    0.57       1.0  T
   4     -9.3052261  0.938800E+00  0.851E+00    0.88       1.0  T
   5     -9.6725649 -0.367339E+00  0.802E+00    0.85       1.0  T
   6    -10.0969234 -0.424359E+00  0.709E+00    0.69       1.0  T
   7    -10.2397351 -0.142812E+00  0.673E+00    0.62       1.0  T
   8    -10.4123787 -0.172644E+00  0.636E+00    0.57       1.0  T
   9    -10.5841612 -0.171783E+00  0.882E+00    0.39       1.0  T
  10    -10.5981822 -0.140209E-01  0.737E+00    0.35       1.0  T
  11    -10.6371437 -0.389615E-01  0.309E+00    0.26       1.0  T
  12    -10.5708573  0.662864E-01  0.307E+00    0.28       1.0  T
  13    -10.6528402 -0.819829E-01  0.254E+00    0.26       1.0  T
  14    -10.5739629  0.788773E-01  0.329E+00    0.29       1.0  T
  15    -10.7361565 -0.162194E+00  0.110E+00    0.23       1.0  T
  16    -10.7501914 -0.140349E-01  0.103E+00    0.22       1.0  T
  17    -10.7379022  0.122892E-01  0.144E+00    0.22       1.0  T
  18    -10.7473819 -0.947971E-02  0.996E-01    0.21       1.0  T
  19    -10.7430297  0.435220E-02  0.106E+00    0.21       1.0  T
  20    -10.7459850 -0.295521E-02  0.890E-01    0.21       1.0  T
  21    -10.7478249 -0.183992E-02  0.763E-01    0.20       1.0  T
  22    -10.7535147 -0.568986E-02  0.408E-01    0.20       1.0  T
  23    -10.7545043 -0.989549E-03  0.305E-01    0.20       1.0  T
  24    -10.7551700 -0.665687E-03  0.163E-01    0.20       1.0  T
  25    -10.7551048  0.651787E-04  0.160E-01    0.20       1.0  T
  26    -10.7545940  0.510845E-03  0.314E-01    0.20       1.0  T
  27    -10.7543029  0.291028E-03  0.343E-01    0.20       1.0  T
  28    -10.7546381 -0.335161E-03  0.235E-01    0.20       1.0  T
  29    -10.7549228 -0.284741E-03  0.165E-01    0.20       1.0  T
  30    -10.7550211 -0.983136E-04  0.132E-01    0.20       1.0  T
  31    -10.7551406 -0.119471E-03  0.770E-02    0.20       1.0  T
  32    -10.7551783 -0.376721E-04  0.479E-02    0.20       1.0  T
  33    -10.7551904 -0.120805E-04  0.330E-02    0.20       1.0  T
  34    -10.7551972 -0.684555E-05  0.197E-02    0.20       1.7  T
  35    -10.7552004 -0.322536E-05  0.821E-03    0.20       4.1  T
  36    -10.7552011 -0.642102E-06  0.249E-03    0.20      13.4  T
  37    -10.7552011 -0.669176E-07  0.635E-04    0.20      52.5  T
  38    -10.7552012 -0.584979E-08  0.148E-04    0.20     225.0  T
     SCC iter.                  ...        0 min,  0.005 sec
     gradient                   ...        0 min,  0.000 sec
 * total energy  :   -10.6206257 Eh     change       -0.2071642E+00 Eh
   gradient norm :     0.1373398 Eh/α   predicted    -0.2361682E+00 (  14.00%)
   displ. norm   :     0.7556943 α      lambda       -0.9797157E-01
   maximum displ.:     0.3965522 α      in ANC's #12, #15, #16, ...

........................................................................
.............................. CYCLE    4 ..............................
........................................................................
   1    -10.6224619 -0.106225E+02  0.581E+00    0.24       0.0  T
   2      4.8598697  0.154823E+02  0.222E+01    0.39       1.0  T
   3    -10.5550015 -0.154149E+02  0.577E+00    0.55       1.0  T
   4     -8.5468721  0.200813E+01  0.921E+00    0.88       1.0  T
   5    -10.6364560 -0.208958E+01  0.405E+00    0.32       1.0  T
   6    -10.8068917 -0.170436E+00  0.329E+00    0.04       1.0  T
   7    -10.5588002  0.248091E+00  0.524E+00    0.16       1.0  T
   8    -10.5651764 -0.637627E-02  0.518E+00    0.15       1.0  T
   9    -10.5927463 -0.275699E-01  0.512E+00    0.15       1.0  T
  10    -10.5898476  0.289878E-02  0.531E+00    0.15       1.0  T
  11    -10.8908407 -0.300993E+00  0.125E+00    0.05       1.0  T
  12    -10.7307994  0.160041E+00  0.487E+00    0.15       1.0  T
  13    -10.7194630  0.113364E-01  0.449E+00    0.17       1.0  T
  14    -10.7821841 -0.627211E-01  0.329E+00    0.14       1.0  T
  15    -10.7792237  0.296033E-02  0.333E+00    0.14       1.0  T
  16    -10.8954074 -0.116184E+00  0.656E-01    0.06       1.0  T
  17    -10.8971743 -0.176689E-02  0.496E-01    0.07       1.0  T
  18    -10.8382279  0.589464E-01  0.215E+00    0.10       1.0  T
  19    -10.8896672 -0.514393E-01  0.755E-01    0.07       1.0  T
  20    -10.8975841 -0.791689E-02  0.236E-01    0.06       1.0  T
  21    -10.8948477  0.273642E-02  0.500E-01    0.07       1.0  T
  22    -10.8803624  0.144852E-01  0.127E+00    0.05       1.0  T
  23    -10.8972683 -0.169059E-01  0.233E-01    0.06       1.0  T
  24    -10.8975219 -0.253601E-03  0.153E-01    0.06       1.0  T
  25    -10.8960402  0.148168E-02  0.352E-01    0.07       1.0  T
  26    -10.8976256 -0.158536E-02  0.441E-02    0.06       1.0  T
  27    -10.8976428 -0.172395E-04  0.292E-02    0.06       1.1  T
  28    -10.8976288  0.140101E-04  0.652E-02    0.06       1.0  T
  29    -10.8976507 -0.218959E-04  0.399E-02    0.06       1.0  T
  30    -10.8976513 -0.638028E-06  0.353E-02    0.06       1.0  T
  31    -10.8976579 -0.652499E-05  0.116E-02    0.06       2.9  T
  32    -10.8976575  0.397351E-06  0.118E-02    0.06       2.8  T
  33    -10.8976582 -0.699734E-06  0.192E-03    0.06      17.4  T
  34    -10.8976581  0.229767E-07  0.225E-03    0.06      14.8  T
  35    -10.8976582 -0.258916E-07  0.382E-04    0.06      87.4  T
  36    -10.8976582 -0.190384E-08  0.111E-04    0.06     299.8  T
     SCC iter.                  ...        0 min,  0.006 sec
     gradient                   ...        0 min,  0.001 sec
 * total energy  :   -10.6826602 Eh     change       -0.6203446E-01 Eh
   gradient norm :     0.1160494 Eh/α   predicted    -0.7696028E-01 (  24.06%)
   displ. norm   :     0.7715300 α      lambda       -0.6359682E-01
   maximum displ.:     0.4100108 α      in ANC's #7, #12, #6, ...

........................................................................
.............................. CYCLE    5 ..............................
........................................................................
   1    -10.8215959 -0.108216E+02  0.490E+00    1.14       0.0  T
   2     -0.2591047  0.105625E+02  0.190E+01    0.86       1.0  T
   3     -9.2284879 -0.896938E+01  0.944E+00    0.57       1.0  T
   4    -10.8760723 -0.164758E+01  0.403E+00    0.96       1.0  T
   5    -10.7757922  0.100280E+00  0.358E+00    1.10       1.0  T
   6    -10.9054390 -0.129647E+00  0.295E+00    0.78       1.0  T
   7    -10.9011598  0.427922E-02  0.281E+00    0.81       1.0  T
   8    -10.9257018 -0.245420E-01  0.258E+00    0.71       1.0  T
   9    -10.9332069 -0.750512E-02  0.214E+00    0.69       1.0  T
  10    -10.9541568 -0.209499E-01  0.169E+00    0.60       1.0  T
  11    -10.9304660  0.236908E-01  0.243E+00    0.68       1.0  T
  12    -10.9676809 -0.372149E-01  0.140E+00    0.53       1.0  T
  13    -10.9737111 -0.603017E-02  0.121E+00    0.50       1.0  T
  14    -10.9799984 -0.628731E-02  0.991E-01    0.47       1.0  T
  15    -10.9934208 -0.134224E-01  0.517E-01    0.38       1.0  T
  16    -10.9936102 -0.189451E-03  0.470E-01    0.38       1.0  T
  17    -10.9955527 -0.194245E-02  0.210E-01    0.35       1.0  T
  18    -10.9957768 -0.224153E-03  0.673E-02    0.35       1.0  T
  19    -10.9957840 -0.710771E-05  0.245E-02    0.34       1.4  T
  20    -10.9957841 -0.138371E-06  0.170E-02    0.34       2.0  T
  21    -10.9957846 -0.485171E-06  0.802E-03    0.35       4.2  T
  22    -10.9957848 -0.229421E-06  0.905E-03    0.35       3.7  T
  23    -10.9957848  0.570506E-07  0.686E-03    0.35       4.9  T
  24    -10.9957848 -0.764494E-07  0.670E-03    0.35       5.0  T
  25    -10.9957848 -0.324365E-08  0.509E-03    0.35       6.5  T
  26    -10.9957848 -0.962785E-08  0.164E-03    0.35      20.3  T
  27    -10.9957848 -0.846915E-09  0.244E-04    0.35     136.7  T
  28    -10.9957848 -0.181965E-09  0.213E-04    0.35     156.7  T
     SCC iter.                  ...        0 min,  0.004 sec
     gradient                   ...        0 min,  0.001 sec
 * total energy  :   -10.7198530 Eh     change       -0.3719279E-01 Eh
   gradient norm :     0.1550605 Eh/α   predicted    -0.5072667E-01 (  36.39%)
   displ. norm   :     0.7499570 α      lambda       -0.7156347E-01
   maximum displ.:     0.4437006 α      in ANC's #4, #7, #6, ...

........................................................................
.............................. CYCLE    6 ..............................
........................................................................
   1    -10.9301470 -0.109301E+02  0.305E+00    0.52       0.0  T
   2    -10.9179909  0.121561E-01  0.213E+00    0.80       1.0  T
   3     -9.2210686  0.169692E+01  0.104E+01    0.61       1.0  T
   4    -10.8793313 -0.165826E+01  0.210E+00    0.46       1.0  T
   5     -9.5476731  0.133166E+01  0.881E+00    0.25       1.0  T
   6    -10.6791887 -0.113152E+01  0.362E+00    0.22       1.0  T
   7    -10.8536387 -0.174450E+00  0.192E+00    0.27       1.0  T
   8    -10.9308529 -0.772142E-01  0.498E-01    0.57       1.0  T
   9    -10.9291157  0.173723E-02  0.474E-01    0.60       1.0  T
  10    -10.9322484 -0.313275E-02  0.424E-01    0.51       1.0  T
  11    -10.9310411  0.120728E-02  0.397E-01    0.55       1.0  T
  12    -10.9310725 -0.313963E-04  0.400E-01    0.56       1.0  T
  13    -10.9311937 -0.121149E-03  0.415E-01    0.55       1.0  T
  14    -10.9311872  0.652058E-05  0.429E-01    0.55       1.0  T
  15    -10.9312248 -0.376236E-04  0.436E-01    0.55       1.0  T
  16    -10.9313323 -0.107522E-03  0.434E-01    0.54       1.0  T
  17    -10.9316082 -0.275913E-03  0.404E-01    0.54       1.0  T
  18    -10.9318747 -0.266513E-03  0.359E-01    0.54       1.0  T
  19    -10.9323672 -0.492465E-03  0.247E-01    0.53       1.0  T
  20    -10.9326634 -0.296168E-03  0.146E-01    0.52       1.0  T
  21    -10.9327855 -0.122101E-03  0.709E-02    0.52       1.0  T
  22    -10.9328136 -0.281321E-04  0.291E-02    0.52       1.1  T
  23    -10.9328164 -0.282720E-05  0.124E-02    0.52       2.7  T
  24    -10.9328151  0.129554E-05  0.124E-02    0.52       2.7  T
  25    -10.9328154 -0.314982E-06  0.110E-02    0.52       3.0  T
  26    -10.9328161 -0.697322E-06  0.646E-03    0.52       5.2  T
  27    -10.9328164 -0.294612E-06  0.260E-03    0.52      12.8  T
  28    -10.9328165 -0.507183E-07  0.513E-04    0.52      64.9  T
  29    -10.9328165 -0.159655E-08  0.234E-04    0.52     142.5  T
     SCC iter.                  ...        0 min,  0.004 sec
     gradient                   ...        0 min,  0.000 sec
 * total energy  :   -10.7530250 Eh     change       -0.3317203E-01 Eh
   gradient norm :     0.1283852 Eh/α   predicted    -0.5590667E-01 (  68.54%)
   displ. norm   :     0.7531933 α      lambda       -0.6007550E-01
   maximum displ.:     0.5300512 α      in ANC's #7, #6, #15, ...

........................................................................
.............................. CYCLE    7 ..............................
........................................................................
   1    -10.9794562 -0.109795E+02  0.296E+00    1.17       0.0  T
   2     -8.6429315  0.233652E+01  0.119E+01    0.35       1.0  T
   3    -10.9835633 -0.234063E+01  0.246E+00    0.79       1.0  T
   4    -10.9688915  0.146717E-01  0.192E+00    0.95       1.0  T
   5    -10.9074723  0.614193E-01  0.175E+00    1.64       1.0  T
   6    -10.9960539 -0.885816E-01  0.105E+00    0.62       1.0  T
   7    -10.9954021  0.651782E-03  0.609E-01    0.90       1.0  T
   8    -11.0000686 -0.466655E-02  0.561E-01    0.82       1.0  T
   9    -11.0002978 -0.229161E-03  0.449E-01    0.82       1.0  T
  10    -10.9999930  0.304821E-03  0.405E-01    0.84       1.0  T
  11    -10.9996083  0.384687E-03  0.390E-01    0.86       1.0  T
  12    -10.9997584 -0.150082E-03  0.373E-01    0.85       1.0  T
  13    -10.9998876 -0.129241E-03  0.354E-01    0.85       1.0  T
  14    -11.0000864 -0.198741E-03  0.325E-01    0.85       1.0  T
  15    -11.0002063 -0.119898E-03  0.305E-01    0.84       1.0  T
  16    -11.0006797 -0.473479E-03  0.207E-01    0.82       1.0  T
  17    -11.0009332 -0.253477E-03  0.124E-01    0.81       1.0  T
  18    -11.0010376 -0.104344E-03  0.624E-02    0.80       1.0  T
  19    -11.0010663 -0.287536E-04  0.262E-02    0.79       1.3  T
  20    -11.0010716 -0.530629E-05  0.948E-03    0.79       3.5  T
  21    -11.0010724 -0.746493E-06  0.214E-03    0.79      15.6  T
  22    -11.0010724 -0.218890E-07  0.134E-03    0.79      24.9  T
  23    -11.0010724 -0.125314E-07  0.292E-04    0.79     114.0  T
  24    -11.0010724 -0.499792E-09  0.264E-05    0.79    1261.7  T
     SCC iter.                  ...        0 min,  0.003 sec
     gradient                   ...        0 min,  0.000 sec
 * total energy  :   -10.7901418 Eh     change       -0.3711681E-01 Eh
   gradient norm :     0.0675855 Eh/α   predicted    -0.4707814E-01 (  26.84%)
   displ. norm   :     0.6564868 α      lambda       -0.3525585E-01
   maximum displ.:     0.3083671 α      in ANC's #4, #12, #1, ...

........................................................................
.............................. CYCLE    8 ..............................
........................................................................
   1    -11.0480323 -0.110480E+02  0.212E+00    1.31       0.0  T
   2    -10.9890266  0.590057E-01  0.250E+00    0.67       1.0  T
   3    -11.0338708 -0.448442E-01  0.148E+00    1.37       1.0  T
   4    -10.8776591  0.156212E+00  0.235E+00    0.47       1.0  T
   5    -11.0342819 -0.156623E+00  0.107E+00    1.47       1.0  T
   6    -11.0586180 -0.243361E-01  0.301E-01    1.02       1.0  T
   7    -11.0588600 -0.242031E-03  0.200E-01    1.06       1.0  T
   8    -11.0587709  0.890795E-04  0.158E-01    1.08       1.0  T
   9    -11.0588581 -0.871067E-04  0.529E-02    1.08       1.0  T
  10    -11.0588897 -0.316731E-04  0.243E-02    1.08       1.4  T
  11    -11.0588955 -0.579077E-05  0.514E-03    1.07       6.5  T
  12    -11.0588959 -0.345298E-06  0.256E-03    1.07      13.0  T
  13    -11.0588960 -0.116991E-06  0.992E-04    1.07      33.6  T
  14    -11.0588960 -0.125687E-07  0.507E-04    1.07      65.8  T
     SCC iter.                  ...        0 min,  0.003 sec
     gradient                   ...        0 min,  0.000 sec
 * total energy  :   -10.7863879 Eh     change        0.3753885E-02 Eh
   gradient norm :     0.2287660 Eh/α   predicted    -0.2522512E-01 (-771.97%)
   displ. norm   :     0.4466560 α      lambda       -0.6558365E-01
   maximum displ.:     0.1993507 α      in ANC's #18, #5, #14, ...

........................................................................
.............................. CYCLE    9 ..............................
........................................................................
   1    -11.1047286 -0.111047E+02  0.213E+00    0.86       0.0  T
   2     -9.1632451  0.194148E+01  0.119E+01    0.37       1.0  T
   3    -11.0971347 -0.193389E+01  0.183E+00    0.37       1.0  T
   4    -11.1080508 -0.109161E-01  0.114E+00    0.50       1.0  T
   5    -11.0338567  0.741941E-01  0.174E+00    1.40       1.0  T
   6    -11.1206752 -0.868185E-01  0.421E-01    0.52       1.0  T
   7    -11.1210958 -0.420675E-03  0.198E-01    0.61       1.0  T
   8    -11.1213807 -0.284817E-03  0.155E-01    0.60       1.0  T
   9    -11.1214055 -0.248144E-04  0.119E-01    0.60       1.0  T
  10    -11.1214103 -0.477518E-05  0.109E-01    0.60       1.0  T
  11    -11.1214710 -0.607717E-04  0.103E-01    0.59       1.0  T
  12    -11.1214718 -0.735384E-06  0.966E-02    0.60       1.0  T
  13    -11.1214774 -0.560638E-05  0.931E-02    0.60       1.0  T
  14    -11.1214822 -0.482428E-05  0.902E-02    0.59       1.0  T
  15    -11.1214863 -0.415478E-05  0.871E-02    0.59       1.0  T
  16    -11.1215007 -0.143781E-04  0.779E-02    0.59       1.0  T
  17    -11.1215129 -0.122053E-04  0.691E-02    0.59       1.0  T
  18    -11.1215406 -0.276685E-04  0.427E-02    0.59       1.0  T
  19    -11.1215546 -0.140481E-04  0.182E-02    0.58       1.8  T
  20    -11.1215576 -0.300243E-05  0.266E-03    0.58      12.5  T
  21    -11.1215577 -0.142755E-07  0.216E-03    0.58      15.5  T
  22    -11.1215577 -0.451831E-07  0.206E-04    0.58     161.7  T
  23    -11.1215577 -0.325796E-09  0.150E-05    0.58    2217.5  T
     SCC iter.                  ...        0 min,  0.004 sec
     gradient                   ...        0 min,  0.000 sec
 * total energy  :   -10.7848719 Eh     change        0.1516051E-02 Eh
   gradient norm :     0.3669400 Eh/α   predicted    -0.3933384E-01 (*******%)
   displ. norm   :     0.5672846 α      lambda       -0.1202275E+00
   maximum displ.:     0.3146612 α      in ANC's #15, #8, #4, ...

........................................................................
.............................. CYCLE   10 ..............................
........................................................................
   1    -10.9991708 -0.109992E+02  0.308E+00    0.58       0.0  T
   2    -10.9712107  0.279601E-01  0.272E+00    0.86       1.0  T
   3    -10.9473231  0.238876E-01  0.262E+00    0.25       1.0  T
   4    -10.8289309  0.118392E+00  0.289E+00    2.11       1.0  T
   5    -10.9899715 -0.161041E+00  0.142E+00    0.48       1.0  T
   6    -11.0084077 -0.184362E-01  0.584E-01    0.91       1.0  T
   7    -11.0148262 -0.641845E-02  0.418E-01    0.74       1.0  T
   8    -11.0145668  0.259354E-03  0.409E-01    0.73       1.0  T
   9    -11.0151861 -0.619276E-03  0.836E-02    0.80       1.0  T
  10    -11.0149784  0.207675E-03  0.114E-01    0.83       1.0  T
  11    -11.0152101 -0.231710E-03  0.141E-02    0.79       2.4  T
  12    -11.0152108 -0.676177E-06  0.116E-02    0.80       2.9  T
  13    -11.0152110 -0.159988E-06  0.310E-03    0.80      10.8  T
  14    -11.0152110 -0.421748E-07  0.163E-03    0.80      20.4  T
  15    -11.0152110 -0.202758E-07  0.280E-04    0.80     119.2  T
  16    -11.0152110  0.193101E-08  0.459E-04    0.80      72.6  T
     SCC iter.                  ...        0 min,  0.002 sec
     gradient                   ...        0 min,  0.001 sec
 * total energy  :   -10.7959725 Eh     change       -0.1110058E-01 Eh
   gradient norm :     0.1611997 Eh/α   predicted    -0.7945903E-01 ( 615.81%)
   displ. norm   :     0.5165117 α      lambda       -0.4982943E-01
   maximum displ.:     0.2713195 α      in ANC's #8, #12, #6, ...

........................................................................
.............................. CYCLE   11 ..............................
........................................................................
   1    -10.9952440 -0.109952E+02  0.248E+00    1.18       0.0  T
   2    -10.9616248  0.336192E-01  0.242E+00    1.56       1.0  T
   3    -10.9431854  0.184394E-01  0.217E+00    0.84       1.0  T
   4    -10.9362497  0.693568E-02  0.153E+00    1.67       1.0  T
   5    -10.9969755 -0.607258E-01  0.472E-01    1.09       1.0  T
   6    -10.9978010 -0.825518E-03  0.322E-01    1.31       1.0  T
   7    -10.9998345 -0.203353E-02  0.210E-01    1.20       1.0  T
   8    -11.0000963 -0.261791E-03  0.135E-01    1.16       1.0  T
   9    -11.0004484 -0.352141E-03  0.276E-02    1.23       1.2  T
  10    -11.0004608 -0.123953E-04  0.177E-02    1.21       1.9  T
  11    -11.0004649 -0.409473E-05  0.952E-03    1.22       3.5  T
  12    -11.0004659 -0.985658E-06  0.384E-03    1.22       8.7  T
  13    -11.0004662 -0.284331E-06  0.456E-04    1.22      73.0  T
  14    -11.0004662 -0.282482E-09  0.212E-04    1.22     157.4  T
     SCC iter.                  ...        0 min,  0.001 sec
     gradient                   ...        0 min,  0.000 sec
 * total energy  :   -10.8090253 Eh     change       -0.1305287E-01 Eh
   gradient norm :     0.1363892 Eh/α   predicted    -0.3156159E-01 ( 141.80%)
   displ. norm   :     0.6600248 α      lambda       -0.5226409E-01
   maximum displ.:     0.3196756 α      in ANC's #7, #8, #15, ...

........................................................................
.............................. CYCLE   12 ..............................
........................................................................
   1    -11.0951534 -0.110952E+02  0.271E+00    1.02       0.0  T
   2     -9.6945549  0.140060E+01  0.956E+00    0.20       1.0  T
   3    -11.0966987 -0.140214E+01  0.218E+00    0.59       1.0  T
   4    -11.0574877  0.392110E-01  0.192E+00    0.50       1.0  T
   5    -10.9841200  0.733678E-01  0.225E+00    1.70       1.0  T
   6    -11.1000821 -0.115962E+00  0.795E-01    0.61       1.0  T
   7    -11.1190488 -0.189667E-01  0.411E-01    0.81       1.0  T
   8    -11.1190967 -0.479012E-04  0.330E-01    0.81       1.0  T
   9    -11.1188953  0.201423E-03  0.180E-01    0.80       1.0  T
  10    -11.1190522 -0.156901E-03  0.150E-01    0.82       1.0  T
  11    -11.1191131 -0.608763E-04  0.138E-01    0.81       1.0  T
  12    -11.1191334 -0.203568E-04  0.134E-01    0.82       1.0  T
  13    -11.1191591 -0.256398E-04  0.123E-01    0.82       1.0  T
  14    -11.1191791 -0.200248E-04  0.117E-01    0.82       1.0  T
  15    -11.1191879 -0.887307E-05  0.111E-01    0.82       1.0  T
  16    -11.1192176 -0.296361E-04  0.974E-02    0.82       1.0  T
  17    -11.1192560 -0.383833E-04  0.753E-02    0.82       1.0  T
  18    -11.1192962 -0.402373E-04  0.416E-02    0.83       1.0  T
  19    -11.1193124 -0.161810E-04  0.118E-02    0.83       2.8  T
  20    -11.1193138 -0.138345E-05  0.150E-03    0.83      22.2  T
  21    -11.1193138  0.152167E-07  0.195E-03    0.83      17.1  T
  22    -11.1193138 -0.401196E-07  0.309E-04    0.83     107.7  T
  23    -11.1193138 -0.999941E-09  0.756E-06    0.83    4411.3  T
     SCC iter.                  ...        0 min,  0.004 sec
     gradient                   ...        0 min,  0.000 sec
 * total energy  :   -10.8113991 Eh     change       -0.2373743E-02 Eh
   gradient norm :     0.1885371 Eh/α   predicted    -0.3751604E-01 (1480.46%)
   displ. norm   :     0.3990346 α      lambda       -0.5779383E-01
   maximum displ.:     0.2112961 α      in ANC's #7, #18, #5, ...

........................................................................
.............................. CYCLE   13 ..............................
........................................................................
   1    -11.0917222 -0.110917E+02  0.246E+00    0.87       0.0  T
   2     -8.6469886  0.244473E+01  0.119E+01    0.44       1.0  T
   3    -11.0875591 -0.244057E+01  0.243E+00    0.84       1.0  T
   4    -11.1106410 -0.230820E-01  0.159E+00    0.67       1.0  T
   5    -10.9562472  0.154394E+00  0.232E+00    2.01       1.0  T
   6    -11.1097217 -0.153475E+00  0.669E-01    0.81       1.0  T
   7    -11.1079781  0.174359E-02  0.626E-01    0.85       1.0  T
   8    -11.1107169 -0.273878E-02  0.593E-01    0.79       1.0  T
   9    -11.1086970  0.201991E-02  0.540E-01    0.84       1.0  T
  10    -11.1095882 -0.891265E-03  0.532E-01    0.83       1.0  T
  11    -11.1103278 -0.739543E-03  0.512E-01    0.81       1.0  T
  12    -11.1106323 -0.304572E-03  0.486E-01    0.80       1.0  T
  13    -11.1110082 -0.375830E-03  0.451E-01    0.80       1.0  T
  14    -11.1114608 -0.452674E-03  0.400E-01    0.79       1.0  T
  15    -11.1120071 -0.546271E-03  0.332E-01    0.78       1.0  T
  16    -11.1128090 -0.801909E-03  0.198E-01    0.76       1.0  T
  17    -11.1131166 -0.307538E-03  0.112E-01    0.74       1.0  T
  18    -11.1131958 -0.792477E-04  0.754E-02    0.74       1.0  T
  19    -11.1132532 -0.574145E-04  0.224E-02    0.73       1.5  T
  20    -11.1132581 -0.483528E-05  0.233E-03    0.73      14.3  T
  21    -11.1132580  0.139170E-07  0.229E-03    0.73      14.5  T
  22    -11.1132581 -0.121425E-08  0.168E-03    0.73      19.8  T
  23    -11.1132581 -0.221357E-07  0.109E-04    0.73     305.7  T
  24    -11.1132581  0.444533E-10  0.913E-05    0.73     365.1  T
     SCC iter.                  ...        0 min,  0.003 sec
     gradient                   ...        0 min,  0.000 sec
 * total energy  :   -10.8275783 Eh     change       -0.1617918E-01 Eh
   gradient norm :     0.1384031 Eh/α   predicted    -0.3349811E-01 ( 107.04%)
   displ. norm   :     0.4371537 α      lambda       -0.2613781E-01
   maximum displ.:     0.2298838 α      in ANC's #4, #7, #5, ...

........................................................................
.............................. CYCLE   14 ..............................
........................................................................
   1    -11.0546564 -0.110547E+02  0.191E+00    0.88       0.0  T
   2    -10.9780029  0.766535E-01  0.246E+00    1.65       1.0  T
   3    -11.0404562 -0.624533E-01  0.139E+00    0.77       1.0  T
   4    -10.9747573  0.656989E-01  0.167E+00    1.65       1.0  T
   5    -11.0574341 -0.826768E-01  0.450E-01    1.18       1.0  T
   6    -11.0628600 -0.542588E-02  0.164E-01    1.02       1.0  T
   7    -11.0621625  0.697514E-03  0.191E-01    0.97       1.0  T
   8    -11.0631290 -0.966563E-03  0.555E-02    1.04       1.0  T
   9    -11.0631561 -0.270803E-04  0.343E-02    1.06       1.0  T
  10    -11.0631654 -0.925593E-05  0.233E-02    1.05       1.4  T
  11    -11.0631716 -0.623453E-05  0.401E-03    1.05       8.3  T
  12    -11.0631715  0.127859E-06  0.361E-03    1.05       9.2  T
  13    -11.0631717 -0.199031E-06  0.260E-04    1.05     128.0  T
  14    -11.0631717 -0.801414E-09  0.112E-04    1.05     296.7  T
     SCC iter.                  ...        0 min,  0.002 sec
     gradient                   ...        0 min,  0.000 sec
 * total energy  :   -10.8355519 Eh     change       -0.7973618E-02 Eh
   gradient norm :     0.0758740 Eh/α   predicted    -0.1556642E-01 (  95.22%)
   displ. norm   :     0.5862027 α      lambda       -0.1825599E-01
   maximum displ.:     0.4149468 α      in ANC's #5, #11, #1, ...

........................................................................
.............................. CYCLE   15 ..............................
........................................................................
   1    -11.0716069 -0.110716E+02  0.171E+00    1.19       0.0  T
   2    -11.0554937  0.161133E-01  0.140E+00    1.64       1.0  T
   3    -10.2332320  0.822262E+00  0.572E+00    0.25       1.0  T
   4    -10.7737474 -0.540515E+00  0.306E+00    0.44       1.0  T
   5    -11.0647914 -0.291044E+00  0.761E-01    1.03       1.0  T
   6    -11.0696168 -0.482543E-02  0.537E-01    1.28       1.0  T
   7    -11.0731311 -0.351426E-02  0.154E-01    1.28       1.0  T
   8    -11.0730048  0.126263E-03  0.169E-01    1.31       1.0  T
   9    -11.0731255 -0.120672E-03  0.105E-01    1.29       1.0  T
  10    -11.0731886 -0.631264E-04  0.542E-02    1.28       1.0  T
  11    -11.0731896 -0.938055E-06  0.492E-02    1.28       1.0  T
  12    -11.0731944 -0.480142E-05  0.434E-02    1.28       1.0  T
  13    -11.0731953 -0.924634E-06  0.399E-02    1.28       1.0  T
  14    -11.0731987 -0.344766E-05  0.350E-02    1.28       1.0  T
  15    -11.0732006 -0.190782E-05  0.316E-02    1.28       1.1  T
  16    -11.0732069 -0.622378E-05  0.166E-02    1.28       2.0  T
  17    -11.0732087 -0.178623E-05  0.763E-03    1.28       4.4  T
  18    -11.0732091 -0.445499E-06  0.108E-03    1.28      30.8  T
  19    -11.0732091 -0.707643E-08  0.367E-04    1.28      90.9  T
  20    -11.0732091 -0.802327E-09  0.666E-05    1.28     500.3  T
     SCC iter.                  ...        0 min,  0.002 sec
     gradient                   ...        0 min,  0.001 sec
 * total energy  :   -10.8421643 Eh     change       -0.6612394E-02 Eh
   gradient norm :     0.0777449 Eh/α   predicted    -0.1226469E-01 (  85.48%)
   displ. norm   :     0.5483255 α      lambda       -0.2371534E-01
   maximum displ.:     0.2746369 α      in ANC's #3, #5, #6, ...

........................................................................
.............................. CYCLE   16 ..............................
........................................................................
   1    -11.1566174 -0.111566E+02  0.194E+00    1.14       0.0  T
   2    -11.1461360  0.104814E-01  0.130E+00    1.16       1.0  T
   3    -10.8439246  0.302211E+00  0.380E+00    0.73       1.0  T
   4    -11.1114010 -0.267476E+00  0.181E+00    1.67       1.0  T
   5    -11.1209857 -0.958469E-02  0.960E-01    0.74       1.0  T
   6    -11.1584341 -0.374485E-01  0.224E-01    1.13       1.0  T
   7    -11.1586516 -0.217413E-03  0.160E-01    1.12       1.0  T
   8    -11.1585691  0.824965E-04  0.129E-01    1.13       1.0  T
   9    -11.1587439 -0.174862E-03  0.221E-02    1.11       1.5  T
  10    -11.1587457 -0.178153E-05  0.138E-02    1.11       2.4  T
  11    -11.1587479 -0.221208E-05  0.318E-03    1.11      10.5  T
  12    -11.1587479 -0.736581E-08  0.277E-03    1.11      12.0  T
  13    -11.1587480 -0.536021E-07  0.944E-04    1.11      35.3  T
  14    -11.1587480 -0.763192E-08  0.287E-04    1.11     116.1  T
     SCC iter.                  ...        0 min,  0.003 sec
     gradient                   ...        0 min,  0.001 sec
 * total energy  :   -10.8560834 Eh     change       -0.1391910E-01 Eh
   gradient norm :     0.0757314 Eh/α   predicted    -0.1542280E-01 (  10.80%)
   displ. norm   :     0.7374409 α      lambda       -0.2510496E-01
   maximum displ.:     0.4636103 α      in ANC's #5, #6, #4, ...

........................................................................
.............................. CYCLE   17 ..............................
........................................................................
   1    -11.1008582 -0.111009E+02  0.344E+00    0.78       0.0  T
   2    -10.8122774  0.288581E+00  0.338E+00    2.55       1.0  T
   3     -7.5803214  0.323196E+01  0.120E+01    0.59       1.0  T
   4     -7.9466023 -0.366281E+00  0.116E+01    0.58       1.0  T
   5     -8.2582259 -0.311624E+00  0.113E+01    0.57       1.0  T
   6    -10.5910545 -0.233283E+01  0.415E+00    0.58       1.0  T
   7    -11.0515563 -0.460502E+00  0.381E+00    1.12       1.0  T
   8    -11.0510231  0.533226E-03  0.337E+00    1.42       1.0  T
   9    -11.0595591 -0.853602E-02  0.298E+00    1.41       1.0  T
  10    -11.0697068 -0.101478E-01  0.257E+00    1.38       1.0  T
  11    -11.1063378 -0.366310E-01  0.135E+00    1.23       1.0  T
  12    -11.1094520 -0.311421E-02  0.115E+00    1.22       1.0  T
  13    -11.1219864 -0.125344E-01  0.704E-01    1.13       1.0  T
  14    -11.1287539 -0.676750E-02  0.510E-01    1.07       1.0  T
  15    -11.1314785 -0.272461E-02  0.514E-01    1.02       1.0  T
  16    -11.1306675  0.810979E-03  0.365E-01    1.04       1.0  T
  17    -11.1315630 -0.895436E-03  0.332E-01    1.01       1.0  T
  18    -11.1317747 -0.211784E-03  0.227E-01    1.01       1.0  T
  19    -11.1318584 -0.836350E-04  0.126E-01    1.00       1.0  T
  20    -11.1318706 -0.122073E-04  0.466E-02    0.99       1.0  T
  21    -11.1318705  0.624297E-07  0.156E-02    0.99       2.1  T
  22    -11.1318720 -0.146924E-05  0.680E-03    1.00       4.9  T
  23    -11.1318719  0.449343E-07  0.312E-03    1.00      10.7  T
  24    -11.1318720 -0.790546E-07  0.830E-04    1.00      40.2  T
  25    -11.1318720 -0.186994E-08  0.858E-04    1.00      38.9  T
     SCC iter.                  ...        0 min,  0.003 sec
     gradient                   ...        0 min,  0.001 sec
 * total energy  :   -10.8690192 Eh     change       -0.1293582E-01 Eh
   gradient norm :     0.0603115 Eh/α   predicted    -0.1937875E-01 (  49.81%)
   displ. norm   :     0.6825117 α      lambda       -0.2186394E-01
   maximum displ.:     0.3768992 α      in ANC's #6, #5, #1, ...

........................................................................
.............................. CYCLE   18 ..............................
........................................................................
   1    -11.0943858 -0.110944E+02  0.246E+00    0.89       0.0  T
   2    -10.7880600  0.306326E+00  0.367E+00    2.66       1.0  T
   3    -10.9804819 -0.192422E+00  0.264E+00    0.77       1.0  T
   4    -10.9637098  0.167721E-01  0.255E+00    1.82       1.0  T
   5    -11.1135786 -0.149869E+00  0.113E+00    1.32       1.0  T
   6    -11.1109635  0.261500E-02  0.104E+00    1.32       1.0  T
   7    -11.1143461 -0.338251E-02  0.861E-01    1.34       1.0  T
   8    -11.1285832 -0.142372E-01  0.241E-01    1.19       1.0  T
   9    -11.1287999 -0.216671E-03  0.554E-02    1.16       1.0  T
  10    -11.1285567  0.243149E-03  0.135E-01    1.20       1.0  T
  11    -11.1288083 -0.251504E-03  0.453E-02    1.17       1.0  T
  12    -11.1288407 -0.324714E-04  0.153E-02    1.17       2.2  T
  13    -11.1288459 -0.515608E-05  0.269E-03    1.17      12.4  T
  14    -11.1288460 -0.134345E-06  0.990E-04    1.17      33.7  T
  15    -11.1288460 -0.181232E-07  0.156E-04    1.17     213.9  T
     SCC iter.                  ...        0 min,  0.002 sec
     gradient                   ...        0 min,  0.000 sec
 * total energy  :   -10.8734130 Eh     change       -0.4393794E-02 Eh
   gradient norm :     0.0821371 Eh/α   predicted    -0.1602431E-01 ( 264.70%)
   displ. norm   :     0.4879858 α      lambda       -0.2314427E-01
   maximum displ.:     0.3341792 α      in ANC's #2, #7, #3, ...

........................................................................
.............................. CYCLE   19 ..............................
........................................................................
   1    -11.1786216 -0.111786E+02  0.185E+00    1.29       0.0  T
   2    -10.9170019  0.261620E+00  0.355E+00    0.63       1.0  T
   3    -11.1509740 -0.233972E+00  0.129E+00    1.55       1.0  T
   4    -10.9233775  0.227597E+00  0.299E+00    0.65       1.0  T
   5    -11.1792634 -0.255886E+00  0.647E-01    1.04       1.0  T
   6    -11.1834765 -0.421302E-02  0.338E-01    1.15       1.0  T
   7    -11.1832949  0.181517E-03  0.316E-01    1.18       1.0  T
   8    -11.1833222 -0.272201E-04  0.262E-01    1.19       1.0  T
   9    -11.1832546  0.675693E-04  0.178E-01    1.20       1.0  T
  10    -11.1835544 -0.299858E-03  0.109E-01    1.19       1.0  T
  11    -11.1837338 -0.179340E-03  0.371E-02    1.18       1.0  T
  12    -11.1837524 -0.185996E-04  0.148E-02    1.17       2.2  T
  13    -11.1837551 -0.270112E-05  0.595E-03    1.17       5.6  T
  14    -11.1837555 -0.399454E-06  0.488E-04    1.17      68.3  T
  15    -11.1837555 -0.405553E-08  0.225E-04    1.17     148.2  T
     SCC iter.                  ...        0 min,  0.003 sec
     gradient                   ...        0 min,  0.000 sec
 * total energy  :   -10.8845002 Eh     change       -0.1108725E-01 Eh
   gradient norm :     0.0357697 Eh/α   predicted    -0.1432781E-01 (  29.23%)
   displ. norm   :     0.7199285 α      lambda       -0.1385600E-01
   maximum displ.:     0.4107429 α      in ANC's #5, #2, #3, ...

........................................................................
.............................. CYCLE   20 ..............................
........................................................................
   1    -11.1551121 -0.111551E+02  0.244E+00    0.86       0.0  T
   2    -11.0456161  0.109496E+00  0.241E+00    1.86       1.0  T
   3     -8.2965299  0.274909E+01  0.109E+01    0.60       1.0  T
   4     -9.6790730 -0.138254E+01  0.795E+00    0.48       1.0  T
   5     -9.4335814  0.245492E+00  0.884E+00    0.47       1.0  T
   6     -9.1100429  0.323539E+00  0.895E+00    0.51       1.0  T
   7    -11.1507542 -0.204071E+01  0.231E+00    1.07       1.0  T
   8    -11.1280392  0.227150E-01  0.195E+00    1.28       1.0  T
   9    -11.1327555 -0.471628E-02  0.165E+00    1.26       1.0  T
  10    -11.1356049 -0.284941E-02  0.134E+00    1.24       1.0  T
  11    -11.1519907 -0.163858E-01  0.754E-01    1.12       1.0  T
  12    -11.1521997 -0.208954E-03  0.702E-01    1.12       1.0  T
  13    -11.1568422 -0.464251E-02  0.547E-01    1.08       1.0  T
  14    -11.1580620 -0.121981E-02  0.496E-01    1.06       1.0  T
  15    -11.1618904 -0.382836E-02  0.162E-01    0.99       1.0  T
  16    -11.1619980 -0.107658E-03  0.121E-01    0.98       1.0  T
  17    -11.1620072 -0.916388E-05  0.737E-02    0.98       1.0  T
  18    -11.1620114 -0.415352E-05  0.383E-02    0.99       1.0  T
  19    -11.1620155 -0.412562E-05  0.459E-03    0.98       7.3  T
  20    -11.1620155 -0.393332E-07  0.105E-03    0.98      31.9  T
  21    -11.1620155 -0.398464E-08  0.889E-04    0.98      37.5  T
  22    -11.1620155  0.417432E-08  0.567E-04    0.98      58.8  T
     SCC iter.                  ...        0 min,  0.003 sec
     gradient                   ...        0 min,  0.000 sec
 * total energy  :   -10.8878168 Eh     change       -0.3316565E-02 Eh
   gradient norm :     0.0682836 Eh/α   predicted    -0.1051876E-01 ( 217.16%)
   displ. norm   :     0.3795953 α      lambda       -0.1151345E-01
   maximum displ.:     0.2080520 α      in ANC's #1, #5, #13, ...
 * RMSD in coord.:     2.1862133 α      energy gain  -0.6777593E+00 Eh

generating ANC from model Hessian ...
Using Lindh-Hessian (1995)
 Shifting diagonal of input Hessian by    1.0178307205493911E-002
 Lowest  eigenvalues of input Hessian
    0.010000    0.010128    0.000000    0.000000    0.000000    0.000000
    0.000000    0.000000    0.010215    0.010259    0.010474    0.010632
    0.010960    0.011725    0.012376    0.014166    0.014615    0.037313
 Highest eigenvalues
    0.503426    0.567446    0.600209    0.681167    1.608229    2.606470


........................................................................
.............................. CYCLE   21 ..............................
........................................................................
   1    -11.1674699 -0.111675E+02  0.123E+00    1.03       0.0  T
   2    -11.1598016  0.766831E-02  0.960E-01    1.25       1.0  T
   3    -10.9428512  0.216950E+00  0.299E+00    0.53       1.0  T
   4    -11.1300379 -0.187187E+00  0.124E+00    1.37       1.0  T
   5    -11.1628495 -0.328116E-01  0.507E-01    1.02       1.0  T
   6    -11.1670875 -0.423804E-02  0.253E-01    1.17       1.0  T
   7    -11.1679845 -0.897001E-03  0.195E-01    1.15       1.0  T
   8    -11.1680237 -0.391848E-04  0.139E-01    1.16       1.0  T
   9    -11.1683620 -0.338339E-03  0.820E-02    1.14       1.0  T
  10    -11.1683801 -0.180933E-04  0.709E-02    1.14       1.0  T
  11    -11.1684421 -0.619994E-04  0.341E-02    1.13       1.0  T
  12    -11.1684586 -0.165033E-04  0.105E-02    1.13       3.2  T
  13    -11.1684599 -0.123860E-05  0.172E-03    1.13      19.3  T
  14    -11.1684599 -0.934257E-08  0.675E-04    1.13      49.4  T
  15    -11.1684599 -0.514866E-08  0.386E-04    1.13      86.3  T
     SCC iter.                  ...        0 min,  0.003 sec
     gradient                   ...        0 min,  0.001 sec
 * total energy  :   -10.8932133 Eh     change       -0.5396439E-02 Eh
   gradient norm :     0.0696100 Eh/α   predicted     0.0000000E+00 (-100.00%)
   displ. norm   :     0.4063286 α      lambda       -0.7280090E-02
   maximum displ.:     0.2293112 α      in ANC's #8, #11, #9, ...

........................................................................
.............................. CYCLE   22 ..............................
........................................................................
   1    -11.1784565 -0.111785E+02  0.147E+00    1.10       0.0  T
   2    -11.1760143  0.244221E-02  0.920E-01    0.99       1.0  T
   3    -11.0178653  0.158149E+00  0.242E+00    2.24       1.0  T
   4    -11.1698059 -0.151941E+00  0.606E-01    1.28       1.0  T
   5    -11.1774705 -0.766461E-02  0.241E-01    1.15       1.0  T
   6    -11.1779464 -0.475897E-03  0.180E-01    1.12       1.0  T
   7    -11.1784284 -0.481987E-03  0.886E-02    1.08       1.0  T
   8    -11.1785707 -0.142345E-03  0.352E-02    1.09       1.0  T
   9    -11.1785969 -0.262006E-04  0.125E-02    1.08       2.7  T
  10    -11.1785988 -0.187826E-05  0.824E-03    1.08       4.0  T
  11    -11.1785993 -0.506207E-06  0.408E-03    1.09       8.2  T
  12    -11.1785995 -0.202367E-06  0.224E-03    1.09      14.9  T
  13    -11.1785996 -0.942287E-07  0.393E-04    1.09      84.8  T
  14    -11.1785996 -0.137552E-08  0.154E-04    1.09     216.2  T
     SCC iter.                  ...        0 min,  0.003 sec
     gradient                   ...        0 min,  0.001 sec
 * total energy  :   -10.8981978 Eh     change       -0.4984527E-02 Eh
   gradient norm :     0.0293544 Eh/α   predicted    -0.4241030E-02 ( -14.92%)
   displ. norm   :     0.3633665 α      lambda       -0.4193388E-02
   maximum displ.:     0.2342153 α      in ANC's #8, #2, #13, ...

........................................................................
.............................. CYCLE   23 ..............................
........................................................................
   1    -11.1914037 -0.111914E+02  0.104E+00    1.11       0.0  T
   2    -11.1807546  0.106491E-01  0.777E-01    0.89       1.0  T
   3    -11.0952226  0.855320E-01  0.191E+00    1.97       1.0  T
   4    -11.1863480 -0.911255E-01  0.678E-01    1.23       1.0  T
   5    -11.1891795 -0.283143E-02  0.347E-01    1.20       1.0  T
   6    -11.1908532 -0.167370E-02  0.232E-01    1.15       1.0  T
   7    -11.1918206 -0.967421E-03  0.125E-01    1.11       1.0  T
   8    -11.1918172  0.337772E-05  0.856E-02    1.11       1.0  T
   9    -11.1919668 -0.149638E-03  0.118E-02    1.09       2.8  T
  10    -11.1919669 -0.286353E-07  0.961E-03    1.09       3.5  T
  11    -11.1919683 -0.146214E-05  0.921E-04    1.09      36.2  T
  12    -11.1919683  0.184085E-07  0.875E-04    1.09      38.1  T
  13    -11.1919683 -0.196425E-07  0.255E-04    1.09     130.8  T
     SCC iter.                  ...        0 min,  0.002 sec
     gradient                   ...        0 min,  0.001 sec
 * total energy  :   -10.9012064 Eh     change       -0.3008653E-02 Eh
   gradient norm :     0.0227018 Eh/α   predicted    -0.2373535E-02 ( -21.11%)
   displ. norm   :     0.5903737 α      lambda       -0.5155894E-02
   maximum displ.:     0.3051094 α      in ANC's #8, #11, #13, ...

........................................................................
.............................. CYCLE   24 ..............................
........................................................................
   1    -11.1963824 -0.111964E+02  0.245E+00    1.02       0.0  T
   2    -11.1936305  0.275189E-02  0.169E+00    1.18       1.0  T
   3     -6.9067265  0.428690E+01  0.124E+01    0.65       1.0  T
   4    -11.0332464 -0.412652E+01  0.228E+00    0.51       1.0  T
   5    -11.1943133 -0.161067E+00  0.432E-01    1.13       1.0  T
   6    -11.1963064 -0.199307E-02  0.188E-01    1.05       1.0  T
   7    -11.1939724  0.233391E-02  0.313E-01    1.19       1.0  T
   8    -11.1965703 -0.259785E-02  0.129E-01    1.11       1.0  T
   9    -11.1965467  0.236420E-04  0.123E-01    1.11       1.0  T
  10    -11.1966181 -0.714224E-04  0.112E-01    1.11       1.0  T
  11    -11.1966354 -0.172961E-04  0.110E-01    1.11       1.0  T
  12    -11.1966979 -0.625093E-04  0.102E-01    1.10       1.0  T
  13    -11.1967243 -0.264215E-04  0.972E-02    1.10       1.0  T
  14    -11.1967467 -0.224098E-04  0.901E-02    1.10       1.0  T
  15    -11.1967701 -0.233985E-04  0.802E-02    1.10       1.0  T
  16    -11.1967978 -0.276899E-04  0.661E-02    1.10       1.0  T
  17    -11.1968392 -0.413956E-04  0.364E-02    1.09       1.0  T
  18    -11.1968514 -0.122469E-04  0.206E-02    1.09       1.6  T
  19    -11.1968558 -0.434131E-05  0.105E-02    1.09       3.2  T
  20    -11.1968573 -0.155156E-05  0.112E-03    1.09      29.8  T
  21    -11.1968574 -0.171956E-07  0.203E-04    1.09     163.9  T
  22    -11.1968574 -0.579858E-09  0.151E-05    1.09    2200.7  T
     SCC iter.                  ...        0 min,  0.005 sec
     gradient                   ...        0 min,  0.000 sec
 * total energy  :   -10.9062727 Eh     change       -0.5066303E-02 Eh
   gradient norm :     0.0324845 Eh/α   predicted    -0.3476477E-02 ( -31.38%)
   displ. norm   :     0.8775475 α      lambda       -0.9177336E-02
   maximum displ.:     0.5027757 α      in ANC's #13, #8, #11, ...

........................................................................
.............................. CYCLE   25 ..............................
........................................................................
   1    -11.1849947 -0.111850E+02  0.442E+00    0.87       0.0  T
   2    -11.1675289  0.174658E-01  0.315E+00    1.25       1.0  T
   3      6.5950278  0.177626E+02  0.222E+01    2.23       1.0  T
   4    -11.0555028 -0.176505E+02  0.194E+00    0.50       1.0  T
   5    -11.1716869 -0.116184E+00  0.593E-01    1.23       1.0  T
   6    -11.1806868 -0.899995E-02  0.450E-01    1.09       1.0  T
   7    -11.1822159 -0.152904E-02  0.410E-01    1.09       1.0  T
   8    -11.1824741 -0.258197E-03  0.361E-01    1.07       1.0  T
   9    -11.1854242 -0.295015E-02  0.255E-01    1.03       1.0  T
  10    -11.1855608 -0.136564E-03  0.222E-01    1.03       1.0  T
  11    -11.1858393 -0.278458E-03  0.178E-01    1.02       1.0  T
  12    -11.1858204  0.188547E-04  0.182E-01    1.02       1.0  T
  13    -11.1861069 -0.286467E-03  0.876E-02    1.00       1.0  T
  14    -11.1861604 -0.535103E-04  0.241E-02    1.00       1.4  T
  15    -11.1861604 -0.685609E-07  0.414E-03    1.00       8.0  T
  16    -11.1861606 -0.138569E-06  0.501E-03    1.00       6.7  T
  17    -11.1861608 -0.265248E-06  0.154E-04    1.00     216.9  T
  18    -11.1861608  0.387336E-09  0.164E-04    1.00     203.3  T
     SCC iter.                  ...        0 min,  0.020 sec
     gradient                   ...        0 min,  0.000 sec
 * total energy  :   -10.9083365 Eh     change       -0.2063740E-02 Eh
   gradient norm :     0.0536590 Eh/α   predicted    -0.8122384E-02 ( 293.58%)
   displ. norm   :     0.3388285 α      lambda       -0.7011286E-02
   maximum displ.:     0.1576919 α      in ANC's #11, #8, #13, ...

........................................................................
.............................. CYCLE   26 ..............................
........................................................................
   1    -11.1945443 -0.111945E+02  0.176E+00    1.16       0.0  T
   2    -11.1884200  0.612432E-02  0.110E+00    1.42       1.0  T
   3     -9.1993385  0.198908E+01  0.853E+00    0.33       1.0  T
   4    -11.1873084 -0.198797E+01  0.114E+00    1.05       1.0  T
   5    -11.1706688  0.166396E-01  0.964E-01    0.91       1.0  T
   6    -11.1949658 -0.242970E-01  0.172E-01    1.23       1.0  T
   7    -11.1950693 -0.103508E-03  0.157E-01    1.23       1.0  T
   8    -11.1950398  0.295125E-04  0.154E-01    1.24       1.0  T
   9    -11.1951228 -0.829762E-04  0.142E-01    1.23       1.0  T
  10    -11.1952609 -0.138061E-03  0.134E-01    1.22       1.0  T
  11    -11.1952666 -0.579177E-05  0.132E-01    1.22       1.0  T
  12    -11.1953296 -0.629699E-04  0.114E-01    1.22       1.0  T
  13    -11.1953878 -0.582245E-04  0.935E-02    1.21       1.0  T
  14    -11.1954510 -0.631514E-04  0.634E-02    1.21       1.0  T
  15    -11.1954783 -0.272697E-04  0.433E-02    1.21       1.0  T
  16    -11.1954944 -0.161541E-04  0.242E-02    1.20       1.4  T
  17    -11.1955006 -0.619246E-05  0.903E-03    1.20       3.7  T
  18    -11.1955016 -0.984957E-06  0.113E-03    1.20      29.5  T
  19    -11.1955016 -0.153953E-07  0.327E-04    1.20     102.0  T
  20    -11.1955016 -0.104041E-08  0.109E-05    1.20    3058.4  T
     SCC iter.                  ...        0 min,  0.004 sec
     gradient                   ...        0 min,  0.001 sec
 * total energy  :   -10.9118081 Eh     change       -0.3471599E-02 Eh
   gradient norm :     0.0324550 Eh/α   predicted    -0.3908109E-02 (  12.57%)
   displ. norm   :     0.3178875 α      lambda       -0.2630660E-02
   maximum displ.:     0.2401846 α      in ANC's #8, #1, #2, ...

........................................................................
.............................. CYCLE   27 ..............................
........................................................................
   1    -11.1965766 -0.111966E+02  0.104E+00    1.26       0.0  T
   2    -11.1930516  0.352497E-02  0.693E-01    1.13       1.0  T
   3    -11.1018537  0.911980E-01  0.172E+00    2.16       1.0  T
   4    -11.1939842 -0.921305E-01  0.480E-01    1.22       1.0  T
   5    -11.1959220 -0.193779E-02  0.245E-01    1.33       1.0  T
   6    -11.1967574 -0.835450E-03  0.942E-02    1.27       1.0  T
[...]
   5    -11.2121614 -0.871298E-05  0.931E-03    1.18       3.6  T
   6    -11.2121626 -0.120658E-05  0.611E-03    1.17       5.5  T
   7    -11.2121630 -0.428432E-06  0.255E-03    1.18      13.1  T
   8    -11.2121632 -0.179845E-06  0.702E-04    1.18      47.5  T
   9    -11.2121632  0.451389E-08  0.514E-04    1.18      64.9  T
     SCC iter.                  ...        0 min,  0.001 sec
     gradient                   ...        0 min,  0.000 sec
 * total energy  :   -10.9194107 Eh     change       -0.8489708E-05 Eh
   gradient norm :     0.0025683 Eh/α   predicted    -0.9806470E-05 (  15.51%)
   displ. norm   :     0.0288613 α      lambda       -0.6980396E-05
   maximum displ.:     0.0146729 α      in ANC's #2, #6, #1, ...

........................................................................
.............................. CYCLE   80 ..............................
........................................................................
   1    -11.2126526 -0.112127E+02  0.314E-02    1.18       0.0  T
   2    -11.2126181  0.344950E-04  0.379E-02    1.15       1.0  T
   3    -11.2125914  0.267653E-04  0.454E-02    1.19       1.0  T
   4    -11.2126349 -0.435032E-04  0.253E-02    1.16       1.3  T
   5    -11.2126543 -0.194714E-04  0.277E-03    1.17      12.0  T
   6    -11.2126545 -0.122884E-06  0.121E-03    1.17      27.5  T
   7    -11.2126545  0.273136E-08  0.770E-04    1.17      43.3  T
   8    -11.2126545 -0.479535E-08  0.217E-04    1.17     153.8  T
     SCC iter.                  ...        0 min,  0.001 sec
     gradient                   ...        0 min,  0.000 sec
 * total energy  :   -10.9194158 Eh     change       -0.5048258E-05 Eh
   gradient norm :     0.0013755 Eh/α   predicted    -0.3491694E-05 ( -30.83%)
   displ. norm   :     0.0401650 α      lambda       -0.8891762E-05
   maximum displ.:     0.0262937 α      in ANC's #3, #6, #2, ...

........................................................................
.............................. CYCLE   81 ..............................
........................................................................
   1    -11.2131455 -0.112131E+02  0.914E-02    1.17       0.0  T
   2    -11.2130407  0.104860E-03  0.781E-02    1.13       1.0  T
   3    -11.2123251  0.715574E-03  0.166E-01    1.24       1.0  T
   4    -11.2129969 -0.671787E-03  0.697E-02    1.14       1.0  T
   5    -11.2131511 -0.154223E-03  0.669E-03    1.16       5.0  T
   6    -11.2131515 -0.395352E-06  0.465E-03    1.16       7.2  T
   7    -11.2131517 -0.174627E-06  0.297E-03    1.16      11.2  T
   8    -11.2131519 -0.282094E-06  0.744E-04    1.16      44.8  T
   9    -11.2131519  0.197179E-08  0.554E-04    1.16      60.2  T
     SCC iter.                  ...        0 min,  0.001 sec
     gradient                   ...        0 min,  0.000 sec
 * total energy  :   -10.9194207 Eh     change       -0.4922628E-05 Eh
   gradient norm :     0.0028790 Eh/α   predicted    -0.4450903E-05 (  -9.58%)
   displ. norm   :     0.0212820 α      lambda       -0.4667342E-05
   maximum displ.:     0.0105272 α      in ANC's #1, #3, #7, ...

........................................................................
.............................. CYCLE   82 ..............................
........................................................................
   1    -11.2130491 -0.112130E+02  0.339E-02    1.16       0.0  T
   2    -11.2130393  0.979218E-05  0.271E-02    1.17       1.2  T
   3    -11.2129276  0.111699E-03  0.624E-02    1.13       1.0  T
   4    -11.2130252 -0.975479E-04  0.263E-02    1.17       1.3  T
   5    -11.2130498 -0.245893E-04  0.115E-03    1.16      28.9  T
   6    -11.2130498  0.266388E-07  0.118E-03    1.16      28.4  T
   7    -11.2130498 -0.192594E-07  0.625E-04    1.16      53.4  T
   8    -11.2130498 -0.117261E-07  0.106E-04    1.16     313.7  T
     SCC iter.                  ...        0 min,  0.001 sec
     gradient                   ...        0 min,  0.001 sec
 * total energy  :   -10.9194240 Eh     change       -0.3363016E-05 Eh
   gradient norm :     0.0018400 Eh/α   predicted    -0.2336015E-05 ( -30.54%)
   displ. norm   :     0.0514134 α      lambda       -0.5317918E-05
   maximum displ.:     0.0293913 α      in ANC's #3, #1, #6, ...

........................................................................
.............................. CYCLE   83 ..............................
........................................................................
   1    -11.2125060 -0.112125E+02  0.737E-02    1.16       0.0  T
   2    -11.2123169  0.189126E-03  0.924E-02    1.21       1.0  T
   3    -11.2122387  0.782383E-04  0.962E-02    1.12       1.0  T
   4    -11.2123405 -0.101785E-03  0.725E-02    1.19       1.0  T
   5    -11.2125168 -0.176343E-03  0.418E-03    1.17       8.0  T
   6    -11.2125169 -0.521104E-07  0.308E-03    1.17      10.8  T
   7    -11.2125168  0.901061E-07  0.239E-03    1.16      14.0  T
   8    -11.2125169 -0.165868E-06  0.638E-04    1.17      52.3  T
   9    -11.2125169 -0.133227E-08  0.456E-04    1.17      73.1  T
     SCC iter.                  ...        0 min,  0.002 sec
     gradient                   ...        0 min,  0.000 sec
 * total energy  :   -10.9194280 Eh     change       -0.3974032E-05 Eh
   gradient norm :     0.0008470 Eh/α   predicted    -0.2662931E-05 ( -32.99%)
   displ. norm   :     0.0217636 α      lambda       -0.1450973E-05
   maximum displ.:     0.0179625 α      in ANC's #3, #1, #5, ...

   *** GEOMETRY OPTIMIZATION CONVERGED AFTER 83 ITERATIONS ***

------------------------------------------------------------------------
 total energy gain   :        -0.7093705 Eh     -445.1367 kcal/mol
 total RMSD          :         2.8778150 a0        1.5229 Å
 total power (kW/mol):       -22.4391794 (step)-6760.1600 (real)
------------------------------------------------------------------------

 ANCopt (total)                0 d,  0 h,  0 min,  0.276 sec
 optimizer setup                ...        0 min,  0.000 sec (  0.010%)
 model hessian                  ...        0 min,  0.000 sec (  0.122%)
 ANC generation                 ...        0 min,  0.000 sec (  0.101%)
 coordinate transformation      ...        0 min,  0.000 sec (  0.082%)
 single point calculation       ...        0 min,  0.267 sec ( 96.999%)
 optimization log               ...        0 min,  0.002 sec (  0.893%)
 hessian update                 ...        0 min,  0.002 sec (  0.669%)
 rational function              ...        0 min,  0.002 sec (  0.579%)

================
 final structure:
================
9
 xtb: 6.5.1 (conda-forge)
Be           0.44201878645139        0.34973759898915       -1.20595202680827
C            0.66507986356849        0.54906544645791        0.30357180987494
C            0.85341347981009        0.71866943656868        1.53652488469763
C            1.05672189066215        0.90352258428935        2.81958005594183
C            1.26291041960210        1.10579502213069        4.04595936209147
H            2.91921361161508        0.36252853561191        4.83156574759991
H            3.60495886136409        0.03002174311429        5.09334606550058
H           -0.16568084822486        0.61268415349838        5.30994148537693
H           -0.78263606484884        0.38397547933532        5.77746261574305

 Bond Distances (Angstroems)
 ---------------------------
Be1-C2=1.5389        C2-Be1=1.5389        C2-C3=1.2587         C3-C2=1.2587         C3-C4=1.3121         C4-C3=1.3121         
C4-C5=1.2599         C5-C4=1.2599         H6-H7=0.8058         H7-H6=0.8058         H8-H9=0.8072         H9-H8=0.8072         
 H  H  Rav=0.8065 sigma=0.0007  Rmin=0.8058  Rmax=0.8072     2
 C  Be Rav=1.5389 sigma=0.0000  Rmin=1.5389  Rmax=1.5389     1
 C  C  Rav=1.2769 sigma=0.0249  Rmin=1.2587  Rmax=1.3121     3

 selected bond angles (degree)
 --------------------
C3-C2-Be1=179.59               C4-C3-C2=179.52                C5-C4-C3=178.74                

 selected dihedral angles (degree)
 ---------------------------------
C4-C3-C2-Be1=  0.90           C5-C4-C3-C2= 16.67            

 CMA Distance (Angstroems)
 ---------------------------
R(CMA):  3.6878
           -------------------------------------------------
          |                Final Singlepoint                |
           -------------------------------------------------

          ...................................................
          :                      SETUP                      :
          :.................................................:
          :  # basis functions                  24          :
          :  # atomic orbitals                  24          :
          :  # shells                           14          :
          :  # electrons                        22          :
          :  max. iterations                   250          :
          :  Hamiltonian                  GFN2-xTB          :
          :  restarted?                      false          :
          :  GBSA solvation                  false          :
          :  PC potential                    false          :
          :  electronic temp.          300.0000000     K    :
          :  accuracy                    1.0000000          :
          :  -> integral cutoff          0.2500000E+02      :
          :  -> integral neglect         0.1000000E-07      :
          :  -> SCF convergence          0.1000000E-05 Eh   :
          :  -> wf. convergence          0.1000000E-03 e    :
          :  Broyden damping             0.4000000          :
          ...................................................

 iter      E             dE          RMSdq      gap      omega  full diag
   1    -11.2125169 -0.112125E+02  0.913E-05    1.17       0.0  T
   2    -11.2125169  0.474543E-08  0.367E-04    1.17      90.9  T
   3    -11.2125169 -0.486490E-08  0.536E-05    1.17     622.3  T

   *** convergence criteria satisfied after 3 iterations ***

         #    Occupation            Energy/Eh            Energy/eV
      -------------------------------------------------------------
         1        2.0000           -0.5912376             -16.0884
       ...           ...                  ...                  ...
         5        2.0000           -0.4309499             -11.7267
         6        2.0000           -0.4287407             -11.6666
         7        2.0000           -0.4206208             -11.4457
         8        2.0000           -0.4168909             -11.3442
         9        2.0000           -0.3478568              -9.4657
        10        2.0000           -0.3437780              -9.3547
        11        2.0000           -0.3292811              -8.9602 (HOMO)
        12                         -0.2864405              -7.7944 (LUMO)
        13                         -0.2547912              -6.9332
        14                         -0.2543526              -6.9213
        15                         -0.1475588              -4.0153
        16                         -0.1458366              -3.9684
       ...                                ...                  ...
        24                          1.4133208              38.4584
      -------------------------------------------------------------
                  HL-Gap            0.0428406 Eh            1.1658 eV
             Fermi-level           -0.3078608 Eh           -8.3773 eV

 SCC (total)                   0 d,  0 h,  0 min,  0.001 sec
 SCC setup                      ...        0 min,  0.000 sec (  3.032%)
 Dispersion                     ...        0 min,  0.000 sec (  4.329%)
 classical contributions        ...        0 min,  0.000 sec (  2.461%)
 integral evaluation            ...        0 min,  0.000 sec ( 10.042%)
 iterations                     ...        0 min,  0.000 sec ( 31.532%)
 molecular gradient             ...        0 min,  0.000 sec ( 41.661%)
 printout                       ...        0 min,  0.000 sec (  5.713%)

         :::::::::::::::::::::::::::::::::::::::::::::::::::::
         ::                     SUMMARY                     ::
         :::::::::::::::::::::::::::::::::::::::::::::::::::::
         :: total energy             -10.919428025444 Eh    ::
         :: gradient norm              0.000836019264 Eh/a0 ::
         :: HOMO-LUMO gap              1.165752014750 eV    ::
         ::.................................................::
         :: SCC energy               -11.212516946718 Eh    ::
         :: -> isotropic ES           -0.033725849672 Eh    ::
         :: -> anisotropic ES          0.022697984212 Eh    ::
         :: -> anisotropic XC          0.009742721834 Eh    ::
         :: -> dispersion             -0.004413380176 Eh    ::
         :: repulsion energy           0.293098986540 Eh    ::
         :: add. restraining           0.000000000000 Eh    ::
         :: total charge              -0.000000000000 e     ::
         :::::::::::::::::::::::::::::::::::::::::::::::::::::

           -------------------------------------------------
          |                Property Printout                |
           -------------------------------------------------

    * Orbital Energies and Occupations

         #    Occupation            Energy/Eh            Energy/eV
      -------------------------------------------------------------
         1        2.0000           -0.5912376             -16.0884
         2        2.0000           -0.5624603             -15.3053
         3        2.0000           -0.5221088             -14.2073
         4        2.0000           -0.4484643             -12.2033
         5        2.0000           -0.4309499             -11.7267
         6        2.0000           -0.4287407             -11.6666
         7        2.0000           -0.4206208             -11.4457
         8        2.0000           -0.4168909             -11.3442
         9        2.0000           -0.3478568              -9.4657
        10        2.0000           -0.3437780              -9.3547
        11        2.0000           -0.3292811              -8.9602 (HOMO)
        12                         -0.2864405              -7.7944 (LUMO)
        13                         -0.2547912              -6.9332
        14                         -0.2543526              -6.9213
        15                         -0.1475588              -4.0153
        16                         -0.1458366              -3.9684
        17                         -0.0242903              -0.6610
        18                         -0.0201803              -0.5491
        19                          0.1709244               4.6511
        20                          0.2048763               5.5750
        21                          0.2096510               5.7049
        22                          0.4060266              11.0485
       ...                                ...                  ...
        24                          1.4133208              38.4584
      -------------------------------------------------------------
                  HL-Gap            0.0428406 Eh            1.1658 eV
             Fermi-level           -0.3078608 Eh           -8.3773 eV

     #   Z          covCN         q      C6AA      α(0)
     1   4 Be       0.848     0.504    62.002    23.602
     2   6 C        1.825    -0.270    39.389    10.140
     3   6 C        1.967     0.043    29.979     8.842
     4   6 C        1.963    -0.044    32.247     9.170
     5   6 C        0.982    -0.206    42.883    11.000
     6   1 H        0.709     0.033     2.707     2.611
     7   1 H        0.709    -0.046     4.232     3.265
     8   1 H        0.703     0.033     2.712     2.616
     9   1 H        0.703    -0.046     4.261     3.279

 Mol. C6AA /au·bohr⁶  :       1450.877994
 Mol. C8AA /au·bohr⁸  :      39985.080089
 Mol. α(0) /au        :         74.526229


Wiberg/Mayer (AO) data.
largest (>0.10) Wiberg bond orders for each atom

 ---------------------------------------------------------------------------
     #   Z sym  total        # sym  WBO       # sym  WBO       # sym  WBO
 ---------------------------------------------------------------------------
     1   4 Be   1.861 --     2 C    1.562     3 C    0.175     4 C    0.124
     2   6 C    3.943 --     3 C    2.114     1 Be   1.562     5 C    0.232
     3   6 C    3.951 --     2 C    2.114     4 C    1.533     1 Be   0.175
                             5 C    0.116
     4   6 C    3.961 --     5 C    2.232     3 C    1.533     1 Be   0.124
     5   6 C    2.769 --     4 C    2.232     2 C    0.232     3 C    0.116
     6   1 H    0.999 --     7 H    0.931
     7   1 H    0.983 --     6 H    0.931
     8   1 H    0.998 --     9 H    0.929
     9   1 H    0.982 --     8 H    0.929
 ---------------------------------------------------------------------------

Topologies differ in total number of bonds
Writing topology from bond orders to xtbtopo.mol

molecular dipole:
                 x           y           z       tot (Debye)
 q only:       -0.503      -0.371      -3.305
   full:       -0.791      -0.655      -5.173      13.405
molecular quadrupole (traceless):
                xx          xy          yy          xz          yz          zz
 q only:        5.004      -1.525       7.329      -8.839      -6.375     -12.333
  q+dip:        3.597      -2.564       4.587     -11.593      -8.953      -8.184
   full:        5.508      -2.623       7.475     -12.646      -9.818     -12.983

           -------------------------------------------------
          |                Geometry Summary                 |
           -------------------------------------------------

      molecular mass/u    :       61.0868897
   center of mass at/Å    :        0.9118553       0.7188442       1.8804692
  moments of inertia/u·Å² :        0.1752443E+02   0.2398927E+03   0.2522620E+03
rotational constants/cm⁻¹ :        0.9619505E+00   0.7027157E-01   0.6682588E-01

 * 4 selected distances

     #   Z          #   Z                                           value/Å
     1   4 Be       2   6 C                                       1.5388796 (max)
     2   6 C        3   6 C                                       1.2587330 (min)
     3   6 C        4   6 C                                       1.3121493
     4   6 C        5   6 C                                       1.2599343

 * 2 distinct bonds (by element types)

   Z      Z             #   av. dist./Å        max./Å        min./Å
   4 Be   6 C           1     1.5388796     1.5388796     1.5388796
   6 C    6 C           3     1.2769389     1.3121493     1.2587330


optimized geometry written to: xtbopt.xyz


           -------------------------------------------------
          | TOTAL ENERGY              -10.919428025444 Eh   |
          | GRADIENT NORM               0.000836019264 Eh/α |
          | HOMO-LUMO GAP               1.165752014750 eV   |
           -------------------------------------------------
########################################################################
[WARNING] Runtime exception occurred
-3- restart_readRestart: Dimension missmatch in restart file.
-2- restart_readRestart: Multiplicity missmatch in restart file.
-1- restart_readRestart: Number of electron missmatch in restart file.
########################################################################

------------------------------------------------------------------------
 * finished run on 2025/06/07 at 03:27:56.087     
------------------------------------------------------------------------
 total:
 * wall-time:     0 d,  0 h,  0 min,  0.481 sec
 *  cpu-time:     0 d,  0 h,  0 min,  6.862 sec
 * ratio c/w:    14.261 speedup
Note: The following floating-point exceptions are signalling: IEEE_UNDERFLOW_FLAG
normal termination of xtb
 SCF:
 * wall-time:     0 d,  0 h,  0 min,  0.200 sec
 *  cpu-time:     0 d,  0 h,  0 min,  2.839 sec
 * ratio c/w:    14.163 speedup
 ANC optimizer:
 * wall-time:     0 d,  0 h,  0 min,  0.277 sec
 *  cpu-time:     0 d,  0 h,  0 min,  3.985 sec
 * ratio c/w:    14.381 speedup

