      -----------------------------------------------------------      
     |                   =====================                   |     
     |                           x T B                           |     
     |                   =====================                   |     
     |                         S. Grimme                         |     
     |          Mulliken Center for Theoretical Chemistry        |     
     |                    University of Bonn                     |     
      -----------------------------------------------------------      

   * xtb version 6.5.1 (conda-forge) compiled by 'runner@Mac-1657629245115.local' on 2022-07-12

   xtb is free software: you can redistribute it and/or modify it under
   the terms of the GNU Lesser General Public License as published by
   the Free Software Foundation, either version 3 of the License, or
   (at your option) any later version.
   
   xtb is distributed in the hope that it will be useful,
   but WITHOUT ANY WARRANTY; without even the implied warranty of
   MERCHANTABILITY or FITNESS FOR A PARTICULAR PURPOSE.  See the
   GNU Lesser General Public License for more details.
   
   Cite this work as:
   * C. Bannwarth, E. Caldeweyher, S. Ehlert, A. Hansen, P. Pracht,
     J. Seibert, S. Spicher, S. Grimme, WIREs Comput. Mol. Sci., 2020, 11,
     e01493. DOI: 10.1002/wcms.1493
   
   for GFN2-xTB:
   * C. Bannwarth, S. Ehlert and S. Grimme., J. Chem. Theory Comput., 2019,
     15, 1652-1671. DOI: 10.1021/acs.jctc.8b01176
   for GFN1-xTB:
   * S. Grimme, C. Bannwarth, P. Shushkov, J. Chem. Theory Comput., 2017,
     13, 1989-2009. DOI: 10.1021/acs.jctc.7b00118
   for GFN0-xTB:
   * P. Pracht, E. Caldeweyher, S. Ehlert, S. Grimme, ChemRxiv, 2019, preprint.
     DOI: 10.26434/chemrxiv.8326202.v1
   for GFN-FF:
   * S. Spicher and S. Grimme, Angew. Chem. Int. Ed., 2020, 59, 15665-15673.
     DOI: 10.1002/anie.202004239
   
   for ALPB and GBSA implicit solvation:
   * S. Ehlert, M. Stahn, S. Spicher, S. Grimme, J. Chem. Theory Comput.,
     2021, 17, 4250-4261. DOI: 10.1021/acs.jctc.1c00471
   
   for DFT-D4:
   * E. Caldeweyher, C. Bannwarth and S. Grimme, J. Chem. Phys., 2017,
     147, 034112. DOI: 10.1063/1.4993215
   * E. Caldeweyher, S. Ehlert, A. Hansen, H. Neugebauer, S. Spicher,
     C. Bannwarth and S. Grimme, J. Chem. Phys., 2019, 150, 154122.
     DOI: 10.1063/1.5090222
   * E. Caldeweyher, J.-M. Mewes, S. Ehlert and S. Grimme, Phys. Chem. Chem. Phys.
     2020, 22, 8499-8512. DOI: 10.1039/D0CP00502A
   
   for sTDA-xTB:
   * S. Grimme and C. Bannwarth, J. Chem. Phys., 2016, 145, 054103.
     DOI: 10.1063/1.4959605
   
   in the mass-spec context:
   * V. Asgeirsson, C. Bauer and S. Grimme, Chem. Sci., 2017, 8, 4879.
     DOI: 10.1039/c7sc00601b
   * J. Koopman and S. Grimme, ACS Omega 2019, 4, 12, 15120-15133.
     DOI: 10.1021/acsomega.9b02011
   
   for metadynamics refer to:
   * S. Grimme, J. Chem. Theory Comput., 2019, 155, 2847-2862
     DOI: 10.1021/acs.jctc.9b00143
   
   for SPH calculations refer to:
   * S. Spicher and S. Grimme, J. Chem. Theory Comput., 2021, 17, 1701-1714
     DOI: 10.1021/acs.jctc.0c01306
   
   with help from (in alphabetical order)
   P. Atkinson, C. Bannwarth, F. Bohle, G. Brandenburg, E. Caldeweyher
   M. Checinski, S. Dohm, S. Ehlert, S. Ehrlich, I. Gerasimov, C. Hölzer
   A. Katbashev, J. Koopman, C. Lavigne, S. Lehtola, F. März, M. Müller,
   F. Musil, H. Neugebauer, J. Pisarek, C. Plett, P. Pracht, F. Pultar,
   J. Seibert, P. Shushkov, S. Spicher, M. Stahn, M. Steiner, T. Strunk,
   J. Stückrath, T. Rose, and J. Unsleber
   
 * started run on 2025/06/07 at 03:27:56.099     

           -------------------------------------------------
          |                Calculation Setup                |
           -------------------------------------------------

          program call               : xtb BeC4H5.xyz --gfn 2 --opt
          coordinate file            : BeC4H5.xyz
          omp threads                :                    16

   ID    Z sym.   atoms
    1    4 Be     1
    2    6 C      2-5
    3    1 H      6-10

molecular fragmentation (1/2 indicates fragments):
1222222222
# atoms in fragment 1/2:     1     9
 fragment masses (1/2) :        9.01       53.08
CMA distance (Bohr)    :   5.600
constraining FC (au)   :  0.0500

           -------------------------------------------------
          |                 G F N 2 - x T B                 |
           -------------------------------------------------

        Reference                      10.1021/acs.jctc.8b01176
      * Hamiltonian:
        H0-scaling (s, p, d)           1.850000    2.230000    2.230000
        zeta-weighting                 0.500000
      * Dispersion:
        s8                             2.700000
        a1                             0.520000
        a2                             5.000000
        s9                             5.000000
      * Repulsion:
        kExp                           1.500000    1.000000
        rExp                           1.000000
      * Coulomb:
        alpha                          2.000000
        third order                    shell-resolved
        anisotropic                    true
        a3                             3.000000
        a5                             4.000000
        cn-shift                       1.200000
        cn-exp                         4.000000
        max-rad                        5.000000


          ...................................................
          :                      SETUP                      :
          :.................................................:
          :  # basis functions                  25          :
          :  # atomic orbitals                  25          :
          :  # shells                           15          :
          :  # electrons                        23          :
          :  max. iterations                   250          :
          :  Hamiltonian                  GFN2-xTB          :
          :  restarted?                      false          :
          :  GBSA solvation                  false          :
          :  PC potential                    false          :
          :  electronic temp.          300.0000000     K    :
          :  accuracy                    1.0000000          :
          :  -> integral cutoff          0.2500000E+02      :
          :  -> integral neglect         0.1000000E-07      :
          :  -> SCF convergence          0.1000000E-05 Eh   :
          :  -> wf. convergence          0.1000000E-03 e    :
          :  Broyden damping             0.4000000          :
          ...................................................

 iter      E             dE          RMSdq      gap      omega  full diag
   1     10.9187824  0.109188E+02  0.240E+01    0.21       0.0  T
   2     -7.6675690 -0.185864E+02  0.146E+01    0.22       1.0  T
   3     -6.7904248  0.877144E+00  0.164E+01    0.39       1.0  T
   4     -8.6726075 -0.188218E+01  0.932E+00    0.90       1.0  T
   5     -9.1468830 -0.474276E+00  0.796E+00    0.07       1.0  T
   6     -9.2321175 -0.852345E-01  0.691E+00    0.48       1.0  T
   7     -9.0003612  0.231756E+00  0.758E+00    0.52       1.0  T
   8     -8.7691440  0.231217E+00  0.987E+00    0.23       1.0  T
   9     -9.8842493 -0.111511E+01  0.558E+00    0.13       1.0  T
  10     -9.8289083  0.553410E-01  0.538E+00    0.17       1.0  T
  11      8.1187423  0.179477E+02  0.194E+01    0.26       1.0  T
  12     -9.7529775 -0.178717E+02  0.887E+00    0.38       1.0  T
  13    -10.6836878 -0.930710E+00  0.568E+00    0.26       1.0  T
  14     -6.4917725  0.419192E+01  0.103E+01    0.55       1.0  T
  15     -5.6460944  0.845678E+00  0.106E+01    0.56       1.0  T
  16     -5.6522235 -0.612911E-02  0.106E+01    0.56       1.0  T
  17     10.6018334  0.162541E+02  0.209E+01    0.22       1.0  T
  18      9.4011134 -0.120072E+01  0.199E+01    0.20       1.0  T
  19      5.0276881 -0.437343E+01  0.173E+01    0.29       1.0  T
  20      7.5477652  0.252008E+01  0.189E+01    0.23       1.0  T
  21     12.3483259  0.480056E+01  0.229E+01    0.14       1.0  T
  22     12.6023515  0.254026E+00  0.238E+01    0.15       1.0  T
  23     12.0235976 -0.578754E+00  0.224E+01    0.17       1.0  T
  24     11.5446540 -0.478944E+00  0.220E+01    0.23       1.0  T
  25     -9.0629995 -0.206077E+02  0.771E+00    0.94       1.0  T
  26     -9.8943270 -0.831328E+00  0.519E+00    0.53       1.0  T
  27     -9.7019560  0.192371E+00  0.543E+00    0.58       1.0  T
  28    -10.4631570 -0.761201E+00  0.414E+00    0.29       1.0  T
  29     -0.9689140  0.949424E+01  0.133E+01    0.38       1.0  T
  30    -10.5267078 -0.955779E+01  0.517E+00    0.27       1.0  T
  31    -10.4776113  0.490964E-01  0.330E+00    0.19       1.0  T
  32     -9.8273393  0.650272E+00  0.743E+00    0.33       1.0  T
  33    -10.2918961 -0.464557E+00  0.606E+00    0.28       1.0  T
  34    -10.4969593 -0.205063E+00  0.496E+00    0.26       1.0  T
  35    -10.4329469  0.640124E-01  0.519E+00    0.27       1.0  T
  36    -10.7037405 -0.270794E+00  0.279E+00    0.20       1.0  T
  37     -9.7208782  0.982862E+00  0.701E+00    0.34       1.0  T
  38     -9.4149094  0.305969E+00  0.750E+00    0.37       1.0  T
  39     -9.9736751 -0.558766E+00  0.642E+00    0.31       1.0  T
  40     -9.4254928  0.548182E+00  0.745E+00    0.37       1.0  T
  41    -10.0474039 -0.621911E+00  0.619E+00    0.31       1.0  T
  42     -9.9051232  0.142281E+00  0.656E+00    0.32       1.0  T
  43     -9.8085925  0.965306E-01  0.673E+00    0.33       1.0  T
  44    -10.7536075 -0.945015E+00  0.221E+00    0.22       1.0  T
  45    -10.7436117  0.999584E-02  0.210E+00    0.22       1.0  T
  46    -10.7358870  0.772469E-02  0.216E+00    0.23       1.0  T
  47    -10.7384534 -0.256646E-02  0.197E+00    0.19       1.0  T
  48    -10.7412126 -0.275920E-02  0.192E+00    0.19       1.0  T
  49    -10.7181967  0.230160E-01  0.198E+00    0.18       1.0  T
  50    -10.7410001 -0.228034E-01  0.191E+00    0.18       1.0  T
  51    -10.6552947  0.857054E-01  0.208E+00    0.19       1.0  T
  52    -10.6812919 -0.259972E-01  0.188E+00    0.20       1.0  T
  53    -10.7243552 -0.430633E-01  0.167E+00    0.20       1.0  T
  54    -10.7089525  0.154027E-01  0.171E+00    0.20       1.0  T
  55    -10.6617140  0.472385E-01  0.190E+00    0.20       1.0  T
  56    -10.7129507 -0.512368E-01  0.162E+00    0.20       1.0  T
  57    -10.7469231 -0.339724E-01  0.140E+00    0.20       1.0  T
  58    -10.7210442  0.258790E-01  0.157E+00    0.20       1.0  T
  59    -10.6386932  0.823510E-01  0.206E+00    0.20       1.0  T
  60    -10.6719349 -0.332417E-01  0.193E+00    0.19       1.0  T
  61    -10.6846067 -0.126718E-01  0.191E+00    0.19       1.0  T
  62    -10.6841112  0.495551E-03  0.192E+00    0.19       1.0  T
  63    -10.6861317 -0.202054E-02  0.191E+00    0.19       1.0  T
  64    -10.7007944 -0.146628E-01  0.182E+00    0.19       1.0  T
  65    -10.7122266 -0.114321E-01  0.174E+00    0.19       1.0  T
  66    -10.7210475 -0.882093E-02  0.167E+00    0.19       1.0  T
  67    -10.7259976 -0.495006E-02  0.162E+00    0.20       1.0  T
  68    -10.7246179  0.137969E-02  0.159E+00    0.20       1.0  T
  69    -10.7223321  0.228575E-02  0.160E+00    0.20       1.0  T
  70    -10.7270236 -0.469142E-02  0.156E+00    0.20       1.0  T
  71    -10.7339391 -0.691551E-02  0.149E+00    0.20       1.0  T
  72    -10.7323156  0.162348E-02  0.146E+00    0.20       1.0  T
  73    -10.7238582  0.845740E-02  0.144E+00    0.20       1.0  T
  74    -10.7199995  0.385871E-02  0.140E+00    0.20       1.0  T
  75    -10.7266817 -0.668218E-02  0.129E+00    0.20       1.0  T
  76    -10.7316598 -0.497816E-02  0.121E+00    0.21       1.0  T
  77    -10.7406723 -0.901253E-02  0.110E+00    0.21       1.0  T
  78    -10.7449657 -0.429337E-02  0.103E+00    0.21       1.0  T
  79    -10.7523309 -0.736521E-02  0.932E-01    0.21       1.0  T
  80    -10.7554984 -0.316749E-02  0.878E-01    0.21       1.0  T
  81    -10.7604180 -0.491955E-02  0.796E-01    0.21       1.0  T
  82    -10.7626985 -0.228056E-02  0.748E-01    0.21       1.0  T
  83    -10.7654558 -0.275729E-02  0.691E-01    0.21       1.0  T
  84    -10.7669442 -0.148837E-02  0.651E-01    0.21       1.0  T
  85    -10.7681533 -0.120908E-02  0.615E-01    0.21       1.0  T
  86    -10.7691826 -0.102937E-02  0.582E-01    0.21       1.0  T
  87    -10.7697143 -0.531630E-03  0.554E-01    0.21       1.0  T
  88    -10.7706648 -0.950515E-03  0.522E-01    0.21       1.0  T
  89    -10.7710980 -0.433248E-03  0.491E-01    0.21       1.0  T
  90    -10.7719155 -0.817499E-03  0.462E-01    0.21       1.0  T
  91    -10.7724423 -0.526819E-03  0.429E-01    0.21       1.0  T
  92    -10.7731309 -0.688551E-03  0.397E-01    0.21       1.0  T
  93    -10.7739473 -0.816387E-03  0.351E-01    0.22       1.0  T
  94    -10.7745568 -0.609471E-03  0.302E-01    0.22       1.0  T
  95    -10.7751918 -0.635046E-03  0.252E-01    0.22       1.0  T
  96    -10.7754473 -0.255523E-03  0.212E-01    0.22       1.0  T
  97    -10.7756668 -0.219467E-03  0.175E-01    0.22       1.0  T
  98    -10.7757677 -0.100958E-03  0.139E-01    0.22       1.0  T
  99    -10.7758341 -0.663705E-04  0.101E-01    0.22       1.0  T
 100    -10.7758701 -0.359486E-04  0.700E-02    0.22       1.0  T
 101    -10.7758836 -0.134907E-04  0.473E-02    0.22       1.0  T
 102    -10.7758907 -0.712928E-05  0.339E-02    0.22       1.0  T
 103    -10.7758946 -0.387107E-05  0.244E-02    0.22       1.3  T
 104    -10.7758969 -0.237456E-05  0.163E-02    0.22       1.9  T
 105    -10.7758986 -0.162288E-05  0.939E-03    0.22       3.4  T
 106    -10.7758989 -0.301784E-06  0.552E-03    0.22       5.7  T
 107    -10.7758989 -0.436134E-07  0.354E-03    0.22       8.9  T
 108    -10.7758991 -0.227260E-06  0.233E-03    0.22      13.6  T
 109    -10.7758991  0.213979E-07  0.218E-03    0.22      14.5  T
 110    -10.7758992 -0.777949E-07  0.147E-03    0.22      21.5  T
 111    -10.7758992 -0.281637E-07  0.104E-03    0.22      30.4  T
 112    -10.7758992  0.120212E-08  0.577E-04    0.22      54.8  T
 113    -10.7758992 -0.360572E-08  0.387E-04    0.22      81.7  T

   *** convergence criteria satisfied after 113 iterations ***

         #    Occupation            Energy/Eh            Energy/eV
      -------------------------------------------------------------
         1        2.0000           -0.6238913             -16.9769
       ...           ...                  ...                  ...
         6        2.0000           -0.4495324             -12.2324
         7        2.0000           -0.3932890             -10.7019
         8        2.0000           -0.3712255             -10.1016
         9        2.0000           -0.3667305              -9.9792
        10        2.0000           -0.3616163              -9.8401
        11        1.8826           -0.3306486              -8.9974
        12        1.1034           -0.3268105              -8.8930 (HOMO)
        13        0.0140           -0.3187096              -8.6725 (LUMO)
        14                         -0.3041569              -8.2765
        15                         -0.2934476              -7.9851
        16                         -0.2745700              -7.4714
        17                         -0.2495285              -6.7900
       ...                                ...                  ...
        25                          0.6040950              16.4383
      -------------------------------------------------------------
                  HL-Gap            0.0081009 Eh            0.2204 eV
             Fermi-level           -0.3257406 Eh           -8.8639 eV

 SCC (total)                   0 d,  0 h,  0 min,  0.033 sec
 SCC setup                      ...        0 min,  0.000 sec (  0.463%)
 Dispersion                     ...        0 min,  0.000 sec (  0.584%)
 classical contributions        ...        0 min,  0.000 sec (  0.767%)
 integral evaluation            ...        0 min,  0.001 sec (  2.632%)
 iterations                     ...        0 min,  0.031 sec ( 93.523%)
 molecular gradient             ...        0 min,  0.001 sec (  1.773%)
 printout                       ...        0 min,  0.000 sec (  0.213%)

         :::::::::::::::::::::::::::::::::::::::::::::::::::::
         ::                     SUMMARY                     ::
         :::::::::::::::::::::::::::::::::::::::::::::::::::::
         :: total energy             -10.705487116813 Eh    ::
         :: gradient norm              0.296345619196 Eh/a0 ::
         :: HOMO-LUMO gap              0.220435999527 eV    ::
         ::.................................................::
         :: SCC energy               -10.775899214544 Eh    ::
         :: -> isotropic ES           -0.086781627642 Eh    ::
         :: -> anisotropic ES          0.009639433198 Eh    ::
         :: -> anisotropic XC          0.001019507333 Eh    ::
         :: -> dispersion             -0.007888600269 Eh    ::
         :: repulsion energy           0.070404314022 Eh    ::
         :: add. restraining           0.000000000000 Eh    ::
         :: total charge              -0.000000000000 e     ::
         :::::::::::::::::::::::::::::::::::::::::::::::::::::

      ----------------------------------------------------------- 
     |                   =====================                   |
     |                        A N C O P T                        |
     |                   =====================                   |
     |               Approximate Normal Coordinate               |
     |                Rational Function Optimizer                |
      ----------------------------------------------------------- 

          ...................................................
          :                      SETUP                      :
          :.................................................:
          :   optimization level            normal          :
          :   max. optcycles                   200          :
          :   ANC micro-cycles                  20          :
          :   degrees of freedom                24          :
          :.................................................:
          :   RF solver                   davidson          :
          :   write xtbopt.log                true          :
          :   linear?                        false          :
          :   energy convergence         0.5000000E-05 Eh   :
          :   grad. convergence          0.1000000E-02 Eh/α :
          :   maximium RF displ.         1.0000000          :
          :   Hlow (freq-cutoff)         0.1000000E-01      :
          :   Hmax (freq-cutoff)         5.0000000          :
          :   S6 in model hess.         20.0000000          :
          ...................................................

generating ANC from model Hessian ...
Using Lindh-Hessian (1995)
 Shifting diagonal of input Hessian by    2.1893339459503350E-002
 Lowest  eigenvalues of input Hessian
    0.010000    0.020089    0.000000    0.000000    0.000000    0.000000
    0.000000    0.000000    0.021934    0.022160    0.022550    0.023009
    0.023319    0.023525    0.024253    0.025274    0.026474    0.035200
 Highest eigenvalues
    0.235659    0.249762    0.275939    0.302585    0.356229    0.386535


........................................................................
.............................. CYCLE    1 ..............................
........................................................................
   1    -10.7758992 -0.107759E+02  0.273E-04    0.22       0.0  T
   2    -10.7758992  0.448482E-07  0.119E-03    0.22      26.5  T
   3    -10.7758992 -0.381098E-07  0.532E-04    0.22      59.4  T
   4    -10.7758992  0.113805E-07  0.927E-04    0.22      34.1  T
     SCC iter.                  ...        0 min,  0.001 sec
     gradient                   ...        0 min,  0.001 sec
 * total energy  :   -10.7054871 Eh     change        0.1822524E-07 Eh
   gradient norm :     0.2962308 Eh/α   predicted     0.0000000E+00 (-100.00%)
   displ. norm   :     0.7827568 α      lambda       -0.2240816E+00
   maximum displ.:     0.4825245 α      in ANC's #18, #17, #15, ...

........................................................................
.............................. CYCLE    2 ..............................
........................................................................
   1    -10.9372132 -0.109372E+02  0.234E+00    0.21       0.0  T
   2     -8.8578046  0.207941E+01  0.831E+00    0.62       1.0  T
   3    -10.7844602 -0.192666E+01  0.251E+00    0.12       1.0  T
   4    -10.1418999  0.642560E+00  0.466E+00    0.59       1.0  T
   5    -10.8765887 -0.734689E+00  0.223E+00    0.32       1.0  T
   6    -10.8315073  0.450814E-01  0.242E+00    0.30       1.0  T
   7    -10.8811619 -0.496546E-01  0.186E+00    0.29       1.0  T
   8    -10.7545912  0.126571E+00  0.275E+00    0.40       1.0  T
   9    -10.5432668  0.211324E+00  0.377E+00    0.49       1.0  T
  10    -10.5436092 -0.342319E-03  0.375E+00    0.49       1.0  T
  11    -10.6127887 -0.691796E-01  0.321E+00    0.48       1.0  T
  12    -10.9555520 -0.342763E+00  0.642E-01    0.20       1.0  T
  13    -10.9646837 -0.913173E-02  0.761E-01    0.16       1.0  T
  14    -10.9645379  0.145761E-03  0.734E-01    0.16       1.0  T
  15    -10.9641244  0.413503E-03  0.621E-01    0.16       1.0  T
  16    -10.9660773 -0.195286E-02  0.293E-01    0.16       1.0  T
  17    -10.9667315 -0.654188E-03  0.204E-01    0.16       1.0  T
  18    -10.9667851 -0.536493E-04  0.195E-01    0.16       1.0  T
  19    -10.9670648 -0.279717E-03  0.923E-02    0.16       1.0  T
  20    -10.9671641 -0.992072E-04  0.447E-02    0.16       1.0  T
  21    -10.9671641  0.125661E-09  0.433E-02    0.16       1.0  T
  22    -10.9671654 -0.137208E-05  0.385E-02    0.17       1.0  T
  23    -10.9671696 -0.413429E-05  0.108E-02    0.16       2.9  T
  24    -10.9671700 -0.409005E-06  0.733E-03    0.16       4.3  T
  25    -10.9671703 -0.303846E-06  0.479E-03    0.17       6.6  T
  26    -10.9671703 -0.333902E-07  0.237E-03    0.17      13.3  T
  27    -10.9671703 -0.235952E-07  0.895E-04    0.17      35.3  T
  28    -10.9671703 -0.218535E-08  0.445E-04    0.17      71.1  T
     SCC iter.                  ...        0 min,  0.005 sec
     gradient                   ...        0 min,  0.000 sec
 * total energy  :   -10.9123360 Eh     change       -0.2068489E+00 Eh
   gradient norm :     0.2870032 Eh/α   predicted    -0.1806891E+00 ( -12.65%)
   displ. norm   :     0.9712687 α      lambda       -0.2748723E+00
   maximum displ.:     0.7636545 α      in ANC's #18, #15, #24, ...

........................................................................
.............................. CYCLE    3 ..............................
........................................................................
   1    -11.2699922 -0.112700E+02  0.317E+00    0.02       0.0  T
   2    -11.1490355  0.120957E+00  0.389E+00    0.25       1.0  T
   3    -10.9569011  0.192134E+00  0.377E+00    0.58       1.0  T
   4     -4.6253351  0.633157E+01  0.123E+01    0.49       1.0  T
   5    -11.0528376 -0.642750E+01  0.388E+00    0.38       1.0  T
   6    -11.1909360 -0.138098E+00  0.268E+00    0.34       1.0  T
   7    -11.2637561 -0.728201E-01  0.181E+00    0.13       1.0  T
   8    -11.2776783 -0.139221E-01  0.140E+00    0.10       1.0  T
   9    -11.2886558 -0.109775E-01  0.615E-01    0.06       1.0  T
  10    -11.2928067 -0.415089E-02  0.505E-01    0.06       1.0  T
  11    -11.2914816  0.132503E-02  0.285E-01    0.05       1.0  T
  12    -11.2931824 -0.170079E-02  0.224E-01    0.05       1.0  T
  13    -11.2926802  0.502274E-03  0.352E-01    0.06       1.0  T
  14    -11.2925695  0.110691E-03  0.364E-01    0.06       1.0  T
  15    -11.2929924 -0.422947E-03  0.244E-01    0.06       1.0  T
  16    -11.2932099 -0.217488E-03  0.107E-01    0.06       1.0  T
  17    -11.2932493 -0.393981E-04  0.741E-02    0.06       1.0  T
  18    -11.2932590 -0.975061E-05  0.363E-02    0.06       1.0  T
  19    -11.2932610 -0.193037E-05  0.501E-02    0.06       1.0  T
  20    -11.2932622 -0.126304E-05  0.336E-02    0.06       1.0  T
  21    -11.2932634 -0.111075E-05  0.152E-02    0.06       2.1  T
  22    -11.2932637 -0.353494E-06  0.392E-03    0.06       8.1  T
  23    -11.2932637 -0.313064E-08  0.166E-03    0.06      19.0  T
  24    -11.2932637 -0.700231E-09  0.116E-03    0.06      27.3  T
  25    -11.2932637 -0.891504E-09  0.474E-04    0.06      66.7  T
  26    -11.2932637 -0.273186E-10  0.283E-04    0.06     111.9  T
     SCC iter.                  ...        0 min,  0.005 sec
     gradient                   ...        0 min,  0.001 sec
 * total energy  :   -11.1473446 Eh     change       -0.2350086E+00 Eh
   gradient norm :     0.1782195 Eh/α   predicted    -0.2670883E+00 (  13.65%)
   displ. norm   :     0.8053687 α      lambda       -0.1366016E+00
   maximum displ.:     0.4445099 α      in ANC's #18, #15, #24, ...

........................................................................
.............................. CYCLE    4 ..............................
........................................................................
   1    -11.5025762 -0.115026E+02  0.339E+00    0.76       0.0  T
   2    -11.4431754  0.594007E-01  0.365E+00    0.53       1.0  T
   3    -11.5232984 -0.801230E-01  0.203E+00    0.67       1.0  T
   4     -9.6180983  0.190520E+01  0.762E+00    1.25       1.0  T
   5    -11.3649411 -0.174684E+01  0.266E+00    0.77       1.0  T
   6    -11.4596946 -0.947535E-01  0.179E+00    0.68       1.0  T
   7    -11.5317546 -0.720600E-01  0.633E-01    0.68       1.0  T
   8    -11.5350345 -0.327987E-02  0.550E-01    0.68       1.0  T
   9    -11.5367149 -0.168041E-02  0.504E-01    0.69       1.0  T
  10    -11.5377586 -0.104369E-02  0.348E-01    0.70       1.0  T
  11    -11.5376479  0.110627E-03  0.251E-01    0.71       1.0  T
  12    -11.5380226 -0.374707E-03  0.320E-02    0.70       1.0  T
  13    -11.5380258 -0.316450E-05  0.280E-02    0.70       1.1  T
  14    -11.5380230  0.275365E-05  0.153E-02    0.70       2.1  T
  15    -11.5380268 -0.379306E-05  0.609E-03    0.71       5.2  T
  16    -11.5380274 -0.516961E-06  0.414E-03    0.71       7.6  T
  17    -11.5380277 -0.358110E-06  0.218E-03    0.71      14.5  T
  18    -11.5380278 -0.417482E-07  0.135E-03    0.71      23.4  T
  19    -11.5380278 -0.321106E-07  0.171E-04    0.71     185.4  T
  20    -11.5380278 -0.443245E-09  0.579E-05    0.71     545.8  T
     SCC iter.                  ...        0 min,  0.003 sec
     gradient                   ...        0 min,  0.001 sec
 * total energy  :   -11.2261584 Eh     change       -0.7881379E-01 Eh
   gradient norm :     0.2545394 Eh/α   predicted    -0.1126020E+00 (  42.87%)
   displ. norm   :     0.6439485 α      lambda       -0.1120286E+00
   maximum displ.:     0.3592593 α      in ANC's #15, #9, #24, ...

........................................................................
.............................. CYCLE    5 ..............................
........................................................................
   1    -11.5166278 -0.115166E+02  0.321E+00    0.86       0.0  T
   2     -7.2677331  0.424889E+01  0.106E+01    1.54       1.0  T
   3    -11.2766966 -0.400896E+01  0.354E+00    1.26       1.0  T
   4    -11.4855171 -0.208820E+00  0.227E+00    0.95       1.0  T
   5    -11.5466557 -0.611386E-01  0.166E+00    0.80       1.0  T
   6    -11.5440079  0.264781E-02  0.122E+00    0.86       1.0  T
   7    -11.5513098 -0.730194E-02  0.113E+00    0.85       1.0  T
   8    -11.5580203 -0.671048E-02  0.103E+00    0.84       1.0  T
   9    -11.5718982 -0.138779E-01  0.688E-01    0.84       1.0  T
  10    -11.5760073 -0.410908E-02  0.502E-01    0.83       1.0  T
  11    -11.5800015 -0.399423E-02  0.584E-02    0.83       1.0  T
  12    -11.5796840  0.317505E-03  0.114E-01    0.83       1.0  T
  13    -11.5799377 -0.253719E-03  0.666E-02    0.83       1.0  T
  14    -11.5799880 -0.503286E-04  0.377E-02    0.83       1.0  T
  15    -11.5800055 -0.175142E-04  0.101E-02    0.83       3.1  T
  16    -11.5800057 -0.129429E-06  0.246E-03    0.83      12.9  T
  17    -11.5800057 -0.115917E-07  0.171E-03    0.83      18.5  T
  18    -11.5800057 -0.276426E-08  0.272E-04    0.83     116.3  T
  19    -11.5800057 -0.209882E-09  0.116E-04    0.83     271.9  T
     SCC iter.                  ...        0 min,  0.003 sec
     gradient                   ...        0 min,  0.001 sec
 * total energy  :   -11.2793176 Eh     change       -0.5315916E-01 Eh
   gradient norm :     0.1341475 Eh/α   predicted    -0.7924179E-01 (  49.07%)
   displ. norm   :     0.7556055 α      lambda       -0.7304876E-01
   maximum displ.:     0.3292491 α      in ANC's #7, #9, #8, ...

........................................................................
.............................. CYCLE    6 ..............................
........................................................................
   1    -11.5327980 -0.115328E+02  0.244E+00    0.96       0.0  T
   2    -11.3249797  0.207818E+00  0.300E+00    0.99       1.0  T
   3    -10.5907467  0.734233E+00  0.611E+00    1.59       1.0  T
   4    -11.5100404 -0.919294E+00  0.176E+00    0.95       1.0  T
   5    -11.5371985 -0.271582E-01  0.929E-01    0.90       1.0  T
   6    -11.5403652 -0.316668E-02  0.538E-01    0.88       1.0  T
   7    -11.5369951  0.337012E-02  0.601E-01    0.88       1.0  T
   8    -11.5393973 -0.240220E-02  0.498E-01    0.88       1.0  T
   9    -11.5398273 -0.429973E-03  0.357E-01    0.87       1.0  T
  10    -11.5423515 -0.252428E-02  0.183E-01    0.88       1.0  T
  11    -11.5427318 -0.380308E-03  0.136E-01    0.88       1.0  T
  12    -11.5430878 -0.355983E-03  0.193E-02    0.89       1.6  T
  13    -11.5430869  0.888620E-06  0.139E-02    0.89       2.3  T
  14    -11.5430862  0.740211E-06  0.117E-02    0.89       2.7  T
  15    -11.5430881 -0.194381E-05  0.209E-03    0.89      15.1  T
  16    -11.5430881 -0.596334E-09  0.161E-03    0.89      19.6  T
  17    -11.5430882 -0.470962E-07  0.312E-04    0.89     101.3  T
  18    -11.5430882 -0.228732E-08  0.246E-05    0.89    1285.0  T
     SCC iter.                  ...        0 min,  0.002 sec
     gradient                   ...        0 min,  0.000 sec
 * total energy  :   -11.3064571 Eh     change       -0.2713959E-01 Eh
   gradient norm :     0.1597121 Eh/α   predicted    -0.5737761E-01 ( 111.42%)
   displ. norm   :     0.6905717 α      lambda       -0.6659771E-01
   maximum displ.:     0.3584761 α      in ANC's #9, #8, #3, ...

........................................................................
.............................. CYCLE    7 ..............................
........................................................................
   1    -11.6472446 -0.116472E+02  0.263E+00    1.25       0.0  T
   2    -11.5109664  0.136278E+00  0.291E+00    0.79       1.0  T
   3    -11.4350261  0.759403E-01  0.321E+00    1.97       1.0  T
   4    -11.6369294 -0.201903E+00  0.145E+00    0.98       1.0  T
   5    -11.6476389 -0.107095E-01  0.938E-01    0.99       1.0  T
   6    -11.6502052 -0.256622E-02  0.834E-01    1.02       1.0  T
   7    -11.6557876 -0.558244E-02  0.717E-01    1.17       1.0  T
   8    -11.6548769  0.910724E-03  0.673E-01    1.24       1.0  T
   9    -11.6547396  0.137303E-03  0.549E-01    1.25       1.0  T
  10    -11.6556892 -0.949608E-03  0.148E-01    1.23       1.0  T
  11    -11.6559592 -0.270026E-03  0.142E-01    1.22       1.0  T
  12    -11.6564013 -0.442113E-03  0.499E-02    1.17       1.0  T
  13    -11.6563855  0.158191E-04  0.384E-02    1.16       1.0  T
  14    -11.6564173 -0.317832E-04  0.116E-02    1.17       2.7  T
  15    -11.6564209 -0.363364E-05  0.477E-03    1.18       6.6  T
  16    -11.6564214 -0.436046E-06  0.129E-03    1.18      24.5  T
  17    -11.6564214 -0.209399E-07  0.353E-04    1.18      89.7  T
  18    -11.6564214 -0.842258E-09  0.214E-05    1.18    1474.5  T
     SCC iter.                  ...        0 min,  0.003 sec
     gradient                   ...        0 min,  0.000 sec
 * total energy  :   -11.3444357 Eh     change       -0.3797853E-01 Eh
   gradient norm :     0.1821011 Eh/α   predicted    -0.4917873E-01 (  29.49%)
   displ. norm   :     0.6555453 α      lambda       -0.6763185E-01
   maximum displ.:     0.2996770 α      in ANC's #3, #7, #18, ...

........................................................................
.............................. CYCLE    8 ..............................
........................................................................
   1    -11.6846837 -0.116847E+02  0.216E+00    1.00       0.0  T
   2    -11.5723841  0.112300E+00  0.315E+00    1.77       1.0  T
   3    -11.6869017 -0.114518E+00  0.130E+00    0.98       1.0  T
   4    -11.6178965  0.690052E-01  0.215E+00    1.70       1.0  T
   5    -11.7007354 -0.828389E-01  0.317E-01    1.10       1.0  T
   6    -11.7017090 -0.973557E-03  0.242E-01    1.17       1.0  T
   7    -11.7012155  0.493531E-03  0.291E-01    1.21       1.0  T
   8    -11.7012940 -0.785156E-04  0.254E-01    1.20       1.0  T
   9    -11.7019250 -0.631045E-03  0.400E-02    1.16       1.0  T
  10    -11.7019409 -0.158827E-04  0.307E-02    1.16       1.0  T
  11    -11.7019415 -0.537008E-06  0.614E-03    1.16       5.2  T
  12    -11.7019415 -0.351932E-07  0.203E-03    1.16      15.6  T
  13    -11.7019415 -0.364504E-07  0.793E-04    1.16      39.9  T
  14    -11.7019415 -0.333822E-08  0.839E-05    1.16     376.8  T
     SCC iter.                  ...        0 min,  0.003 sec
     gradient                   ...        0 min,  0.001 sec
 * total energy  :   -11.3583110 Eh     change       -0.1387534E-01 Eh
   gradient norm :     0.2489885 Eh/α   predicted    -0.4834798E-01 ( 248.45%)
   displ. norm   :     0.5724583 α      lambda       -0.7650448E-01
   maximum displ.:     0.3069919 α      in ANC's #8, #10, #9, ...

........................................................................
.............................. CYCLE    9 ..............................
........................................................................
   1    -11.6855308 -0.116855E+02  0.181E+00    1.26       0.0  T
   2    -11.6219838  0.635470E-01  0.298E+00    0.86       1.0  T
   3    -11.6920006 -0.700168E-01  0.130E+00    1.08       1.0  T
   4    -11.5834169  0.108584E+00  0.290E+00    0.89       1.0  T
   5    -11.6940482 -0.110631E+00  0.481E-01    1.07       1.0  T
   6    -11.6948928 -0.844590E-03  0.297E-01    1.09       1.0  T
   7    -11.6951228 -0.229992E-03  0.279E-01    1.09       1.0  T
   8    -11.6956494 -0.526557E-03  0.117E-01    1.11       1.0  T
   9    -11.6957688 -0.119409E-03  0.543E-02    1.12       1.0  T
  10    -11.6957899 -0.211840E-04  0.299E-02    1.12       1.1  T
  11    -11.6958000 -0.100848E-04  0.958E-03    1.12       3.3  T
  12    -11.6958004 -0.413259E-06  0.422E-03    1.12       7.5  T
  13    -11.6958004  0.498003E-07  0.552E-03    1.12       5.7  T
  14    -11.6958005 -0.135145E-06  0.175E-03    1.12      18.1  T
  15    -11.6958006 -0.208022E-07  0.259E-04    1.12     122.1  T
  16    -11.6958006  0.156067E-09  0.248E-04    1.12     127.3  T
     SCC iter.                  ...        0 min,  0.004 sec
     gradient                   ...        0 min,  0.001 sec
 * total energy  :   -11.3880483 Eh     change       -0.2973733E-01 Eh
   gradient norm :     0.1249143 Eh/α   predicted    -0.5078781E-01 (  70.79%)
   displ. norm   :     0.6647103 α      lambda       -0.4343461E-01
   maximum displ.:     0.3802604 α      in ANC's #8, #2, #5, ...

........................................................................
.............................. CYCLE   10 ..............................
........................................................................
   1    -11.7003413 -0.117003E+02  0.159E+00    1.81       0.0  T
   2    -11.6973882  0.295307E-02  0.938E-01    1.55       1.0  T
   3    -11.6730803  0.243078E-01  0.159E+00    2.15       1.0  T
   4    -11.7005170 -0.274367E-01  0.335E-01    1.72       1.0  T
   5    -11.7015399 -0.102289E-02  0.197E-01    1.78       1.0  T
   6    -11.7015013  0.386757E-04  0.201E-01    1.79       1.0  T
   7    -11.7014697  0.315200E-04  0.102E-01    1.80       1.0  T
   8    -11.7015593 -0.895328E-04  0.380E-02    1.78       1.0  T
   9    -11.7015782 -0.188729E-04  0.253E-02    1.76       1.2  T
  10    -11.7015774  0.756930E-06  0.179E-02    1.76       1.8  T
  11    -11.7015803 -0.294598E-05  0.214E-03    1.77      14.8  T
  12    -11.7015804 -0.232644E-07  0.353E-04    1.76      89.6  T
  13    -11.7015804 -0.618142E-09  0.290E-04    1.76     109.2  T
     SCC iter.                  ...        0 min,  0.003 sec
     gradient                   ...        0 min,  0.001 sec
 * total energy  :   -11.3971596 Eh     change       -0.9111245E-02 Eh
   gradient norm :     0.1504998 Eh/α   predicted    -0.3131288E-01 ( 243.67%)
   displ. norm   :     0.5289008 α      lambda       -0.3599390E-01
   maximum displ.:     0.2444825 α      in ANC's #7, #3, #4, ...

........................................................................
.............................. CYCLE   11 ..............................
........................................................................
   1    -11.7583449 -0.117583E+02  0.151E+00    1.78       0.0  T
   2    -11.7579831  0.361812E-03  0.910E-01    1.80       1.0  T
   3    -11.7503325  0.765061E-02  0.896E-01    1.77       1.0  T
   4    -11.7587485 -0.841607E-02  0.535E-02    1.76       1.0  T
   5    -11.7586950  0.535299E-04  0.971E-02    1.80       1.0  T
   6    -11.7587676 -0.725664E-04  0.389E-02    1.78       1.0  T
   7    -11.7587704 -0.285812E-05  0.253E-02    1.78       1.3  T
   8    -11.7587739 -0.344795E-05  0.138E-02    1.78       2.3  T
   9    -11.7587744 -0.490771E-06  0.447E-03    1.77       7.1  T
  10    -11.7587743  0.328443E-07  0.341E-03    1.77       9.3  T
  11    -11.7587744 -0.687096E-07  0.905E-04    1.77      34.9  T
  12    -11.7587744 -0.541637E-08  0.114E-04    1.77     277.5  T
     SCC iter.                  ...        0 min,  0.002 sec
     gradient                   ...        0 min,  0.001 sec
 * total energy  :   -11.4200498 Eh     change       -0.2289021E-01 Eh
   gradient norm :     0.0891283 Eh/α   predicted    -0.2303134E-01 (   0.62%)
   displ. norm   :     0.7697607 α      lambda       -0.4620923E-01
   maximum displ.:     0.3650917 α      in ANC's #15, #3, #7, ...

........................................................................
.............................. CYCLE   12 ..............................
........................................................................
   1    -11.7159280 -0.117159E+02  0.293E+00    0.71       0.0  T
   2    -11.6359532  0.799748E-01  0.239E+00    1.02       1.0  T
   3    -11.3430275  0.292926E+00  0.516E+00    0.38       1.0  T
   4    -11.6468698 -0.303842E+00  0.231E+00    0.74       1.0  T
   5    -11.6668828 -0.200130E-01  0.182E+00    0.53       1.0  T
   6    -11.7098207 -0.429379E-01  0.954E-01    0.59       1.0  T
   7    -11.7140530 -0.423236E-02  0.798E-01    0.61       1.0  T
   8    -11.7197942 -0.574120E-02  0.408E-01    0.64       1.0  T
   9    -11.7226854 -0.289121E-02  0.600E-02    0.67       1.0  T
  10    -11.7226589  0.265807E-04  0.550E-02    0.68       1.0  T
  11    -11.7226912 -0.323752E-04  0.142E-02    0.67       2.2  T
  12    -11.7226889  0.229918E-05  0.140E-02    0.67       2.3  T
  13    -11.7226918 -0.289117E-05  0.637E-03    0.67       5.0  T
  14    -11.7226921 -0.273832E-06  0.144E-03    0.67      22.0  T
  15    -11.7226921 -0.110082E-07  0.445E-04    0.67      71.0  T
  16    -11.7226921 -0.274000E-08  0.478E-05    0.67     662.2  T
     SCC iter.                  ...        0 min,  0.004 sec
     gradient                   ...        0 min,  0.001 sec
 * total energy  :   -11.3628077 Eh     change        0.5724213E-01 Eh
   gradient norm :     0.4729440 Eh/α   predicted    -0.3679481E-01 (-164.28%)
   displ. norm   :     0.3552963 α      lambda       -0.1368027E+00
   maximum displ.:     0.1752758 α      in ANC's #8, #11, #15, ...

........................................................................
.............................. CYCLE   13 ..............................
........................................................................
   1    -11.7347446 -0.117347E+02  0.224E+00    1.33       0.0  T
   2    -11.6640713  0.706732E-01  0.232E+00    0.73       1.0  T
   3    -11.6700480 -0.597671E-02  0.213E+00    1.76       1.0  T
   4    -11.7255992 -0.555512E-01  0.121E+00    1.08       1.0  T
   5    -11.7434484 -0.178491E-01  0.536E-01    1.24       1.0  T
   6    -11.7436996 -0.251231E-03  0.472E-01    1.26       1.0  T
   7    -11.7436269  0.726962E-04  0.449E-01    1.28       1.0  T
   8    -11.7433141  0.312868E-03  0.297E-01    1.36       1.0  T
   9    -11.7437258 -0.411767E-03  0.727E-02    1.35       1.0  T
  10    -11.7438411 -0.115290E-03  0.614E-02    1.32       1.0  T
  11    -11.7438374  0.375486E-05  0.192E-02    1.31       1.6  T
  12    -11.7438454 -0.805837E-05  0.123E-02    1.32       2.6  T
  13    -11.7438474 -0.195289E-05  0.150E-03    1.32      21.1  T
  14    -11.7438474 -0.315077E-07  0.816E-04    1.32      38.7  T
  15    -11.7438474 -0.839422E-08  0.500E-04    1.32      63.2  T
     SCC iter.                  ...        0 min,  0.003 sec
     gradient                   ...        0 min,  0.001 sec
 * total energy  :   -11.4329788 Eh     change       -0.7017116E-01 Eh
   gradient norm :     0.0846668 Eh/α   predicted    -0.7703602E-01 (   9.78%)
   displ. norm   :     0.4965473 α      lambda       -0.2276437E-01
   maximum displ.:     0.2597627 α      in ANC's #10, #14, #4, ...

........................................................................
.............................. CYCLE   14 ..............................
........................................................................
   1    -11.8257312 -0.118257E+02  0.116E+00    1.89       0.0  T
   2    -11.8252165  0.514706E-03  0.857E-01    1.89       1.0  T
   3    -11.8234881  0.172845E-02  0.676E-01    1.91       1.0  T
   4    -11.8265278 -0.303973E-02  0.106E-01    1.88       1.0  T
   5    -11.8265115  0.163283E-04  0.102E-01    1.90       1.0  T
   6    -11.8265640 -0.525198E-04  0.252E-02    1.89       1.3  T
   7    -11.8265617  0.230443E-05  0.228E-02    1.89       1.4  T
   8    -11.8265642 -0.247194E-05  0.133E-02    1.88       2.4  T
   9    -11.8265654 -0.126178E-05  0.295E-03    1.89      10.7  T
  10    -11.8265654 -0.575366E-08  0.212E-03    1.89      14.9  T
  11    -11.8265655 -0.317552E-07  0.436E-04    1.89      72.5  T
  12    -11.8265655 -0.105904E-08  0.284E-05    1.89    1111.6  T
     SCC iter.                  ...        0 min,  0.003 sec
     gradient                   ...        0 min,  0.001 sec
 * total energy  :   -11.4343639 Eh     change       -0.1385025E-02 Eh
   gradient norm :     0.1732589 Eh/α   predicted    -0.1418858E-01 ( 924.43%)
   displ. norm   :     0.5040979 α      lambda       -0.2871737E-01
   maximum displ.:     0.2379085 α      in ANC's #3, #7, #8, ...

........................................................................
.............................. CYCLE   15 ..............................
........................................................................
   1    -11.7551477 -0.117551E+02  0.150E+00    1.60       0.0  T
   2    -11.7541537  0.994048E-03  0.104E+00    1.64       1.0  T
   3    -11.7419861  0.121676E-01  0.110E+00    1.48       1.0  T
   4    -11.7554775 -0.134914E-01  0.159E-01    1.64       1.0  T
   5    -11.7557251 -0.247596E-03  0.110E-01    1.57       1.0  T
   6    -11.7557553 -0.301533E-04  0.551E-02    1.60       1.0  T
   7    -11.7557824 -0.270953E-04  0.293E-02    1.59       1.1  T
   8    -11.7557924 -0.999204E-05  0.559E-03    1.59       5.7  T
   9    -11.7557926 -0.200263E-06  0.118E-03    1.59      26.8  T
  10    -11.7557926 -0.632798E-08  0.530E-04    1.59      59.7  T
  11    -11.7557926 -0.156429E-08  0.205E-04    1.59     154.3  T
     SCC iter.                  ...        0 min,  0.002 sec
     gradient                   ...        0 min,  0.001 sec
 * total energy  :   -11.4466916 Eh     change       -0.1232770E-01 Eh
   gradient norm :     0.0697768 Eh/α   predicted    -0.1800745E-01 (  46.07%)
   displ. norm   :     0.4968454 α      lambda       -0.1488211E-01
   maximum displ.:     0.2070250 α      in ANC's #9, #4, #3, ...

........................................................................
.............................. CYCLE   16 ..............................
........................................................................
   1    -11.7680938 -0.117681E+02  0.149E+00    1.58       0.0  T
   2    -11.7659101  0.218368E-02  0.970E-01    1.39       1.0  T
   3    -11.7458731  0.200370E-01  0.139E+00    1.77       1.0  T
   4    -11.7681874 -0.223143E-01  0.275E-01    1.43       1.0  T
   5    -11.7691002 -0.912800E-03  0.127E-01    1.51       1.0  T
   6    -11.7692558 -0.155559E-03  0.553E-02    1.48       1.0  T
   7    -11.7692559 -0.120035E-06  0.443E-02    1.49       1.0  T
   8    -11.7692675 -0.115378E-04  0.131E-02    1.48       2.4  T
   9    -11.7692691 -0.161119E-05  0.608E-03    1.48       5.2  T
  10    -11.7692691 -0.714123E-07  0.116E-03    1.48      27.4  T
  11    -11.7692692 -0.550219E-08  0.247E-04    1.48     128.2  T
  12    -11.7692692 -0.269321E-09  0.118E-04    1.48     267.5  T
     SCC iter.                  ...        0 min,  0.011 sec
     gradient                   ...        0 min,  0.001 sec
 * total energy  :   -11.4454392 Eh     change        0.1252329E-02 Eh
   gradient norm :     0.1744442 Eh/α   predicted    -0.9277922E-02 (-840.85%)
   displ. norm   :     0.3680646 α      lambda       -0.1957362E-01
   maximum displ.:     0.2214423 α      in ANC's #3, #4, #5, ...

........................................................................
.............................. CYCLE   17 ..............................
........................................................................
   1    -11.7900295 -0.117900E+02  0.927E-01    1.40       0.0  T
   2    -11.7900565 -0.270671E-04  0.566E-01    1.42       1.0  T
   3    -11.7886565  0.140008E-02  0.377E-01    1.42       1.0  T
   4    -11.7901060 -0.144955E-02  0.544E-02    1.40       1.0  T
   5    -11.7900863  0.196753E-04  0.753E-02    1.43       1.0  T
   6    -11.7901409 -0.545333E-04  0.329E-02    1.42       1.0  T
   7    -11.7901406  0.301787E-06  0.189E-02    1.42       1.7  T
   8    -11.7901447 -0.409916E-05  0.397E-03    1.41       8.0  T
   9    -11.7901447 -0.672941E-08  0.198E-03    1.41      16.0  T
  10    -11.7901447  0.620583E-08  0.168E-03    1.41      18.8  T
  11    -11.7901447 -0.222636E-07  0.533E-04    1.41      59.4  T
  12    -11.7901447 -0.248829E-08  0.320E-05    1.41     987.1  T
     SCC iter.                  ...        0 min,  0.002 sec
     gradient                   ...        0 min,  0.001 sec
 * total energy  :   -11.4567013 Eh     change       -0.1126204E-01 Eh
   gradient norm :     0.0304378 Eh/α   predicted    -0.1111264E-01 (  -1.33%)
   displ. norm   :     0.6157388 α      lambda       -0.9570689E-02
   maximum displ.:     0.2967566 α      in ANC's #3, #4, #7, ...

........................................................................
.............................. CYCLE   18 ..............................
........................................................................
   1    -11.7861050 -0.117861E+02  0.196E+00    1.49       0.0  T
   2    -11.7856777  0.427357E-03  0.134E+00    1.58       1.0  T
   3    -11.7575278  0.281499E-01  0.135E+00    1.00       1.0  T
   4    -11.7859495 -0.284217E-01  0.220E-01    1.52       1.0  T
   5    -11.7863198 -0.370315E-03  0.113E-01    1.48       1.0  T
   6    -11.7863755 -0.557201E-04  0.670E-02    1.49       1.0  T
   7    -11.7863952 -0.196930E-04  0.362E-02    1.48       1.0  T
   8    -11.7864062 -0.110059E-04  0.146E-02    1.47       2.2  T
   9    -11.7864069 -0.722476E-06  0.574E-03    1.47       5.5  T
  10    -11.7864070 -0.104409E-06  0.208E-03    1.47      15.2  T
  11    -11.7864070 -0.243763E-07  0.697E-04    1.47      45.3  T
  12    -11.7864070 -0.355563E-09  0.418E-04    1.47      75.6  T
     SCC iter.                  ...        0 min,  0.002 sec
     gradient                   ...        0 min,  0.001 sec
 * total energy  :   -11.4589701 Eh     change       -0.2268881E-02 Eh
   gradient norm :     0.0888568 Eh/α   predicted    -0.6599639E-02 ( 190.88%)
   displ. norm   :     0.4421064 α      lambda       -0.1029172E-01
   maximum displ.:     0.2996675 α      in ANC's #3, #13, #2, ...

........................................................................
.............................. CYCLE   19 ..............................
........................................................................
   1    -11.7947096 -0.117947E+02  0.127E+00    1.62       0.0  T
   2    -11.7945846  0.125043E-03  0.776E-01    1.59       1.0  T
   3    -11.7897799  0.480464E-02  0.728E-01    1.70       1.0  T
   4    -11.7947982 -0.501830E-02  0.742E-02    1.58       1.0  T
   5    -11.7948101 -0.119021E-04  0.734E-02    1.61       1.0  T
   6    -11.7948442 -0.340705E-04  0.143E-02    1.59       2.2  T
   7    -11.7948449 -0.721107E-06  0.109E-02    1.59       2.9  T
   8    -11.7948459 -0.102660E-05  0.407E-03    1.59       7.8  T
   9    -11.7948460 -0.427868E-07  0.177E-03    1.59      17.9  T
  10    -11.7948460 -0.550132E-08  0.730E-04    1.59      43.3  T
  11    -11.7948460  0.222265E-09  0.382E-04    1.59      82.7  T
     SCC iter.                  ...        0 min,  0.003 sec
     gradient                   ...        0 min,  0.001 sec
 * total energy  :   -11.4605009 Eh     change       -0.1530732E-02 Eh
   gradient norm :     0.0901670 Eh/α   predicted    -0.6151655E-02 ( 301.88%)
   displ. norm   :     0.4213217 α      lambda       -0.1655275E-01
   maximum displ.:     0.2428646 α      in ANC's #4, #15, #14, ...

........................................................................
.............................. CYCLE   20 ..............................
........................................................................
   1    -11.7895264 -0.117895E+02  0.809E-01    1.15       0.0  T
   2    -11.7884687  0.105770E-02  0.635E-01    1.01       1.0  T
   3    -11.7840708  0.439787E-02  0.643E-01    1.28       1.0  T
   4    -11.7893686 -0.529781E-02  0.216E-01    1.07       1.0  T
   5    -11.7899532 -0.584596E-03  0.584E-02    1.11       1.0  T
   6    -11.7899427  0.105635E-04  0.577E-02    1.09       1.0  T
   7    -11.7899639 -0.212358E-04  0.321E-02    1.11       1.0  T
   8    -11.7899714 -0.750599E-05  0.835E-03    1.11       3.8  T
   9    -11.7899712  0.226197E-06  0.731E-03    1.11       4.3  T
  10    -11.7899715 -0.313834E-06  0.685E-04    1.11      46.2  T
  11    -11.7899715 -0.350164E-09  0.235E-04    1.11     134.5  T
     SCC iter.                  ...        0 min,  0.002 sec
     gradient                   ...        0 min,  0.001 sec
 * total energy  :   -11.4604671 Eh     change        0.3382192E-04 Eh
   gradient norm :     0.1218411 Eh/α   predicted    -0.9745540E-02 (*******%)
   displ. norm   :     0.3159875 α      lambda       -0.1587240E-01
   maximum displ.:     0.1482052 α      in ANC's #5, #2, #7, ...
 * RMSD in coord.:     2.2868617 α      energy gain  -0.7549799E+00 Eh

generating ANC from model Hessian ...
Using Lindh-Hessian (1995)
 Shifting diagonal of input Hessian by    1.0463383621265938E-002
 Lowest  eigenvalues of input Hessian
    0.010000    0.010267    0.010365    0.010449    0.000000    0.000000
    0.000000    0.000000    0.000000    0.000000    0.010727    0.010882
    0.010998    0.011104    0.011350    0.011683    0.011949    0.012607
 Highest eigenvalues
    0.576872    0.581967    0.899601    0.970061    2.033929    2.765686


........................................................................
.............................. CYCLE   21 ..............................
........................................................................
   1    -11.8060842 -0.118061E+02  0.107E+00    1.22       0.0  T
   2    -11.8060596  0.246662E-04  0.699E-01    1.24       1.0  T
   3    -11.8035102  0.254937E-02  0.467E-01    1.12       1.0  T
   4    -11.8060684 -0.255821E-02  0.104E-01    1.23       1.0  T
   5    -11.8061601 -0.917089E-04  0.337E-02    1.21       1.0  T
   6    -11.8061530  0.712260E-05  0.381E-02    1.22       1.0  T
   7    -11.8061647 -0.117392E-04  0.134E-02    1.21       2.4  T
   8    -11.8061664 -0.168004E-05  0.555E-03    1.21       5.7  T
   9    -11.8061665 -0.118021E-06  0.210E-03    1.21      15.1  T
  10    -11.8061665 -0.678175E-08  0.887E-04    1.21      35.6  T
  11    -11.8061665 -0.122264E-08  0.187E-04    1.21     168.8  T
     SCC iter.                  ...        0 min,  0.002 sec
     gradient                   ...        0 min,  0.000 sec
 * total energy  :   -11.4676212 Eh     change       -0.7154156E-02 Eh
   gradient norm :     0.0550903 Eh/α   predicted     0.0000000E+00 (-100.00%)
   displ. norm   :     0.4061711 α      lambda       -0.4614491E-02
   maximum displ.:     0.2249582 α      in ANC's #9, #10, #11, ...

........................................................................
.............................. CYCLE   22 ..............................
........................................................................
   1    -11.8062908 -0.118063E+02  0.112E+00    1.23       0.0  T
   2    -11.8062850  0.575061E-05  0.717E-01    1.22       1.0  T
   3    -11.8054142  0.870840E-03  0.297E-01    1.28       1.0  T
   4    -11.8063181 -0.903863E-03  0.441E-02    1.23       1.0  T
   5    -11.8062943  0.237839E-04  0.537E-02    1.24       1.0  T
   6    -11.8063196 -0.252990E-04  0.153E-02    1.23       2.1  T
   7    -11.8063213 -0.173694E-05  0.907E-03    1.23       3.5  T
   8    -11.8063217 -0.375525E-06  0.537E-03    1.23       5.9  T
   9    -11.8063218 -0.904966E-07  0.157E-03    1.23      20.2  T
  10    -11.8063218 -0.424008E-08  0.660E-04    1.23      47.9  T
  11    -11.8063218 -0.585242E-09  0.237E-04    1.23     133.2  T
     SCC iter.                  ...        0 min,  0.002 sec
     gradient                   ...        0 min,  0.000 sec
 * total energy  :   -11.4700565 Eh     change       -0.2435294E-02 Eh
   gradient norm :     0.0178578 Eh/α   predicted    -0.2687879E-02 (  10.37%)
   displ. norm   :     0.4766395 α      lambda       -0.4571424E-02
   maximum displ.:     0.3294553 α      in ANC's #8, #12, #14, ...

........................................................................
.............................. CYCLE   23 ..............................
........................................................................
   1    -11.8131270 -0.118131E+02  0.114E+00    1.34       0.0  T
   2    -11.8130663  0.607125E-04  0.740E-01    1.36       1.0  T
   3    -11.8101843  0.288197E-02  0.527E-01    1.26       1.0  T
   4    -11.8131953 -0.301097E-02  0.639E-02    1.34       1.0  T
   5    -11.8131735  0.217849E-04  0.487E-02    1.33       1.0  T
   6    -11.8132012 -0.277285E-04  0.186E-02    1.34       1.7  T
   7    -11.8132041 -0.293705E-05  0.673E-03    1.33       4.7  T
   8    -11.8132044 -0.264524E-06  0.325E-03    1.33       9.7  T
   9    -11.8132044 -0.165473E-08  0.164E-03    1.33      19.2  T
  10    -11.8132044 -0.413255E-08  0.883E-04    1.33      35.8  T
  11    -11.8132044 -0.344060E-08  0.430E-04    1.33      73.5  T
     SCC iter.                  ...        0 min,  0.001 sec
     gradient                   ...        0 min,  0.000 sec
 * total energy  :   -11.4708656 Eh     change       -0.8091210E-03 Eh
   gradient norm :     0.0504218 Eh/α   predicted    -0.2804996E-02 ( 246.67%)
   displ. norm   :     0.4091903 α      lambda       -0.5234899E-02
   maximum displ.:     0.2910942 α      in ANC's #13, #8, #12, ...

........................................................................
.............................. CYCLE   24 ..............................
........................................................................
   1    -11.8131017 -0.118131E+02  0.143E+00    1.35       0.0  T
   2    -11.8130953  0.641239E-05  0.878E-01    1.32       1.0  T
   3    -11.8120175  0.107781E-02  0.368E-01    1.43       1.0  T
   4    -11.8131300 -0.111254E-02  0.507E-02    1.33       1.0  T
   5    -11.8131074  0.225841E-04  0.676E-02    1.35       1.0  T
   6    -11.8131394 -0.319776E-04  0.109E-02    1.33       2.9  T
   7    -11.8131399 -0.512573E-06  0.782E-03    1.33       4.0  T
   8    -11.8131403 -0.360948E-06  0.451E-03    1.33       7.0  T
   9    -11.8131403  0.439997E-08  0.243E-03    1.33      13.0  T
  10    -11.8131403 -0.271916E-07  0.649E-04    1.33      48.7  T
  11    -11.8131403 -0.405763E-09  0.151E-04    1.33     210.1  T
     SCC iter.                  ...        0 min,  0.002 sec
     gradient                   ...        0 min,  0.000 sec
 * total energy  :   -11.4731459 Eh     change       -0.2280228E-02 Eh
   gradient norm :     0.0322280 Eh/α   predicted    -0.3055711E-02 (  34.01%)
   displ. norm   :     0.3253612 α      lambda       -0.3203394E-02
   maximum displ.:     0.2031545 α      in ANC's #10, #9, #14, ...

........................................................................
.............................. CYCLE   25 ..............................
........................................................................
   1    -11.8101280 -0.118101E+02  0.112E+00    1.27       0.0  T
   2    -11.8101305 -0.245191E-05  0.697E-01    1.26       1.0  T
   3    -11.8096236  0.506880E-03  0.243E-01    1.30       1.0  T
   4    -11.8101521 -0.528546E-03  0.465E-02    1.27       1.0  T
   5    -11.8101462  0.598965E-05  0.378E-02    1.26       1.0  T
   6    -11.8101543 -0.811757E-05  0.190E-02    1.27       1.7  T
   7    -11.8101550 -0.694760E-06  0.151E-02    1.26       2.1  T
   8    -11.8101560 -0.100776E-05  0.920E-03    1.26       3.4  T
   9    -11.8101561 -0.133034E-06  0.108E-03    1.26      29.3  T
  10    -11.8101561 -0.365766E-08  0.407E-04    1.27      77.6  T
  11    -11.8101561 -0.236009E-09  0.167E-04    1.27     189.5  T
     SCC iter.                  ...        0 min,  0.002 sec
     gradient                   ...        0 min,  0.000 sec
 * total energy  :   -11.4746682 Eh     change       -0.1522375E-02 Eh
   gradient norm :     0.0251225 Eh/α   predicted    -0.1771252E-02 (  16.35%)
   displ. norm   :     0.3240113 α      lambda       -0.1765285E-02
   maximum displ.:     0.1360707 α      in ANC's #8, #11, #9, ...

........................................................................
.............................. CYCLE   26 ..............................
........................................................................
   1    -11.8081548 -0.118082E+02  0.960E-01    1.25       0.0  T
   2    -11.8081580 -0.318490E-05  0.604E-01    1.25       1.0  T
   3    -11.8080393  0.118654E-03  0.125E-01    1.27       1.0  T
   4    -11.8081650 -0.125682E-03  0.307E-02    1.25       1.0  T
   5    -11.8081573  0.768226E-05  0.349E-02    1.26       1.0  T
   6    -11.8081654 -0.803173E-05  0.378E-03    1.25       8.4  T
   7    -11.8081654  0.247531E-08  0.332E-03    1.25       9.5  T
   8    -11.8081654 -0.605886E-07  0.190E-03    1.25      16.6  T
   9    -11.8081654 -0.407618E-08  0.729E-04    1.25      43.4  T
  10    -11.8081654 -0.117436E-08  0.280E-04    1.25     112.9  T
     SCC iter.                  ...        0 min,  0.002 sec
     gradient                   ...        0 min,  0.000 sec
 * total energy  :   -11.4759581 Eh     change       -0.1289856E-02 Eh
   gradient norm :     0.0196348 Eh/α   predicted    -0.9753105E-03 ( -24.39%)
   displ. norm   :     0.4217379 α      lambda       -0.2337717E-02
   maximum displ.:     0.1596184 α      in ANC's #12, #8, #14, ...

........................................................................
.............................. CYCLE   27 ..............................
........................................................................
   1    -11.8147539 -0.118148E+02  0.115E+00    1.20       0.0  T
   2    -11.8146866  0.673002E-04  0.670E-01    1.16       1.0  T
   3    -11.8118215  0.286512E-02  0.619E-01    1.33       1.0  T
   4    -11.8147830 -0.296147E-02  0.702E-02    1.20       1.0  T
   5    -11.8147802  0.272102E-05  0.567E-02    1.20       1.0  T
   6    -11.8147993 -0.190837E-04  0.170E-02    1.20       1.9  T
   7    -11.8148009 -0.160702E-05  0.520E-03    1.19       6.1  T
   8    -11.8148011 -0.208891E-06  0.252E-03    1.19      12.6  T
   9    -11.8148011 -0.657814E-08  0.644E-04    1.19      49.1  T
  10    -11.8148011 -0.921760E-09  0.273E-04    1.19     115.9  T
     SCC iter.                  ...        0 min,  0.001 sec
     gradient                   ...        0 min,  0.000 sec
 * total energy  :   -11.4770542 Eh     change       -0.1096129E-02 Eh
   gradient norm :     0.0295758 Eh/α   predicted    -0.1376760E-02 (  25.60%)
   displ. norm   :     0.3480908 α      lambda       -0.1810832E-02
   maximum displ.:     0.1784045 α      in ANC's #9, #11, #8, ...

........................................................................
.............................. CYCLE   28 ..............................
........................................................................
   1    -11.8143491 -0.118143E+02  0.966E-01    1.17       0.0  T
   2    -11.8142841  0.650150E-04  0.551E-01    1.12       1.0  T
   3    -11.8120206  0.226348E-02  0.585E-01    1.29       1.0  T
   4    -11.8143806 -0.235994E-02  0.676E-02    1.17       1.0  T
   5    -11.8143823 -0.171348E-05  0.526E-02    1.16       1.0  T
   6    -11.8143917 -0.939032E-05  0.219E-02    1.16       1.4  T
   7    -11.8143938 -0.219119E-05  0.835E-03    1.16       3.8  T
   8    -11.8143942 -0.351564E-06  0.517E-03    1.16       6.1  T
   9    -11.8143942 -0.303394E-07  0.241E-03    1.16      13.1  T
  10    -11.8143942 -0.200261E-07  0.387E-04    1.16      81.7  T
  11    -11.8143942 -0.270699E-10  0.133E-04    1.16     237.6  T
     SCC iter.                  ...        0 min,  0.002 sec
     gradient                   ...        0 min,  0.000 sec
 * total energy  :   -11.4777354 Eh     change       -0.6812324E-03 Eh
   gradient norm :     0.0259629 Eh/α   predicted    -0.1015124E-02 (  49.01%)
   displ. norm   :     0.2693252 α      lambda       -0.1598929E-02
   maximum displ.:     0.1400245 α      in ANC's #7, #10, #1, ...

........................................................................
.............................. CYCLE   29 ..............................
........................................................................
   1    -11.8284384 -0.118284E+02  0.930E-01    1.19       0.0  T
   2    -11.8284362  0.216377E-05  0.563E-01    1.17       1.0  T
   3    -11.8280004  0.435785E-03  0.303E-01    1.26       1.0  T
   4    -11.8284528 -0.452349E-03  0.499E-02    1.19       1.0  T
   5    -11.8284465  0.628337E-05  0.511E-02    1.19       1.0  T
   6    -11.8284584 -0.119671E-04  0.137E-02    1.18       2.3  T
   7    -11.8284588 -0.360530E-06  0.889E-03    1.18       3.6  T
   8    -11.8284590 -0.156666E-06  0.647E-03    1.18       4.9  T
   9    -11.8284591 -0.147336E-06  0.897E-04    1.18      35.3  T
  10    -11.8284591 -0.182384E-08  0.301E-04    1.18     105.0  T
     SCC iter.                  ...        0 min,  0.002 sec
     gradient                   ...        0 min,  0.000 sec
 * total energy  :   -11.4782828 Eh     change       -0.5473926E-03 Eh
   gradient norm :     0.0204707 Eh/α   predicted    -0.8574529E-03 (  56.64%)
   displ. norm   :     0.2443461 α      lambda       -0.9212582E-03
   maximum displ.:     0.1152415 α      in ANC's #8, #10, #9, ...

........................................................................
.............................. CYCLE   30 ..............................
........................................................................
   1    -11.8190292 -0.118190E+02  0.724E-01    1.18       0.0  T
   2    -11.8190291  0.606022E-07  0.460E-01    1.18       1.0  T
   3    -11.8188324  0.196685E-03  0.135E-01    1.18       1.0  T
   4    -11.8190344 -0.201994E-03  0.450E-02    1.19       1.0  T
   5    -11.8190344 -0.318292E-08  0.303E-02    1.17       1.0  T
   6    -11.8190388 -0.436967E-05  0.774E-03    1.18       4.1  T
   7    -11.8190387  0.792559E-07  0.701E-03    1.18       4.5  T
   8    -11.8190389 -0.147288E-06  0.364E-03    1.18       8.7  T
   9    -11.8190389 -0.355373E-07  0.351E-04    1.18      90.1  T
  10    -11.8190389 -0.394854E-09  0.162E-04    1.18     195.6  T
     SCC iter.                  ...        0 min,  0.002 sec
     gradient                   ...        0 min,  0.000 sec
 * total energy  :   -11.4786870 Eh     change       -0.4041522E-03 Eh
   gradient norm :     0.0132651 Eh/α   predicted    -0.4881304E-03 (  20.78%)
   displ. norm   :     0.1147777 α      lambda       -0.6251627E-03
   maximum displ.:     0.0654105 α      in ANC's #4, #1, #10, ...

........................................................................
.............................. CYCLE   31 ..............................
........................................................................
   1    -11.8226047 -0.118226E+02  0.302E-01    1.08       0.0  T
   2    -11.8225200  0.846816E-04  0.286E-01    1.04       1.0  T
   3    -11.8225435 -0.234966E-04  0.140E-01    1.10       1.0  T
   4    -11.8226398 -0.962295E-04  0.460E-02    1.07       1.0  T
   5    -11.8226423 -0.256784E-05  0.256E-02    1.08       1.2  T
   6    -11.8226463 -0.398021E-05  0.909E-03    1.08       3.5  T
   7    -11.8226462  0.164245E-06  0.895E-03    1.08       3.5  T
   8    -11.8226464 -0.277810E-06  0.142E-03    1.08      22.3  T
   9    -11.8226464 -0.674389E-09  0.877E-04    1.08      36.1  T
  10    -11.8226464 -0.279631E-08  0.559E-04    1.08      56.6  T
     SCC iter.                  ...        0 min,  0.002 sec
     gradient                   ...        0 min,  0.000 sec
 * total energy  :   -11.4788454 Eh     change       -0.1584030E-03 Eh
   gradient norm :     0.0100919 Eh/α   predicted    -0.3166996E-03 (  99.93%)
   displ. norm   :     0.2991911 α      lambda       -0.7456391E-03
   maximum displ.:     0.1988803 α      in ANC's #8, #11, #7, ...

........................................................................
.............................. CYCLE   32 ..............................
........................................................................
   1    -11.8223743 -0.118224E+02  0.108E+00    1.14       0.0  T
   2    -11.8223755 -0.124521E-05  0.687E-01    1.13       1.0  T
   3    -11.8218436  0.531883E-03  0.256E-01    1.14       1.0  T
   4    -11.8223962 -0.552631E-03  0.722E-02    1.14       1.0  T
   5    -11.8223866  0.960578E-05  0.627E-02    1.12       1.0  T
   6    -11.8224035 -0.168208E-04  0.193E-02    1.13       1.6  T
   7    -11.8224031  0.403536E-06  0.163E-02    1.13       1.9  T
   8    -11.8224043 -0.125324E-05  0.755E-03    1.13       4.2  T
   9    -11.8224045 -0.150316E-06  0.586E-04    1.13      54.0  T
  10    -11.8224045 -0.101294E-08  0.293E-04    1.13     108.0  T
     SCC iter.                  ...        0 min,  0.001 sec
     gradient                   ...        0 min,  0.000 sec
 * total energy  :   -11.4790626 Eh     change       -0.2171678E-03 Eh
   gradient norm :     0.0232973 Eh/α   predicted    -0.4061871E-03 (  87.04%)
   displ. norm   :     0.1096905 α      lambda       -0.4179787E-03
   maximum displ.:     0.0531783 α      in ANC's #12, #10, #4, ...

........................................................................
.............................. CYCLE   33 ..............................
........................................................................
   1    -11.8232291 -0.118232E+02  0.319E-01    1.14       0.0  T
   2    -11.8232308 -0.169132E-05  0.203E-01    1.13       1.0  T
   3    -11.8232054  0.254337E-04  0.552E-02    1.14       1.0  T
   4    -11.8232318 -0.263841E-04  0.219E-02    1.14       1.4  T
   5    -11.8232320 -0.250620E-06  0.165E-02    1.13       1.9  T
   6    -11.8232323 -0.309815E-06  0.121E-02    1.14       2.6  T
   7    -11.8232328 -0.480091E-06  0.479E-03    1.14       6.6  T
   8    -11.8232329 -0.749365E-07  0.347E-03    1.14       9.1  T
   9    -11.8232329 -0.362544E-07  0.275E-04    1.14     115.1  T
  10    -11.8232329 -0.135074E-09  0.148E-04    1.14     214.0  T
     SCC iter.                  ...        0 min,  0.001 sec
     gradient                   ...        0 min,  0.000 sec
 * total energy  :   -11.4792472 Eh     change       -0.1846771E-03 Eh
   gradient norm :     0.0081067 Eh/α   predicted    -0.2115024E-03 (  14.53%)
   displ. norm   :     0.0799958 α      lambda       -0.1602150E-03
   maximum displ.:     0.0429210 α      in ANC's #8, #6, #10, ...

........................................................................
.............................. CYCLE   34 ..............................
........................................................................
   1    -11.8237037 -0.118237E+02  0.218E-01    1.11       0.0  T
   2    -11.8236985  0.516856E-05  0.133E-01    1.10       1.0  T
   3    -11.8235546  0.143898E-03  0.142E-01    1.15       1.0  T
   4    -11.8237072 -0.152601E-03  0.156E-02    1.11       2.0  T
   5    -11.8237076 -0.449649E-06  0.114E-02    1.11       2.8  T
   6    -11.8237079 -0.300230E-06  0.420E-03    1.11       7.5  T
   7    -11.8237080 -0.380905E-07  0.297E-03    1.11      10.6  T
   8    -11.8237080 -0.331201E-07  0.168E-03    1.11      18.9  T
   9    -11.8237080 -0.422227E-08  0.323E-04    1.11      97.8  T
  10    -11.8237080 -0.265935E-09  0.104E-04    1.11     303.6  T
     SCC iter.                  ...        0 min,  0.001 sec
     gradient                   ...        0 min,  0.000 sec
 * total energy  :   -11.4793243 Eh     change       -0.7705221E-04 Eh
   gradient norm :     0.0066509 Eh/α   predicted    -0.8061889E-04 (   4.63%)
   displ. norm   :     0.1245132 α      lambda       -0.1159750E-03
   maximum displ.:     0.0565079 α      in ANC's #8, #1, #11, ...

........................................................................
.............................. CYCLE   35 ..............................
........................................................................
   1    -11.8230340 -0.118230E+02  0.376E-01    1.09       0.0  T
   2    -11.8230328  0.115426E-05  0.229E-01    1.08       1.0  T
   3    -11.8229205  0.112262E-03  0.146E-01    1.13       1.0  T
   4    -11.8230371 -0.116565E-03  0.238E-02    1.09       1.3  T
   5    -11.8230373 -0.209944E-06  0.204E-02    1.09       1.5  T
   6    -11.8230388 -0.148511E-05  0.622E-03    1.09       5.1  T
   7    -11.8230388  0.429646E-07  0.526E-03    1.09       6.0  T
   8    -11.8230389 -0.147534E-06  0.245E-03    1.09      12.9  T
   9    -11.8230389 -0.111589E-07  0.251E-04    1.09     126.2  T
  10    -11.8230389 -0.242487E-09  0.103E-04    1.09     307.1  T
     SCC iter.                  ...        0 min,  0.002 sec
     gradient                   ...        0 min,  0.000 sec
 * total energy  :   -11.4793991 Eh     change       -0.7475864E-04 Eh
   gradient norm :     0.0039258 Eh/α   predicted    -0.5888770E-04 ( -21.23%)
   displ. norm   :     0.1452447 α      lambda       -0.9920243E-04
   maximum displ.:     0.0642402 α      in ANC's #8, #1, #10, ...

........................................................................
.............................. CYCLE   36 ..............................
........................................................................
   1    -11.8252829 -0.118253E+02  0.485E-01    1.10       0.0  T
   2    -11.8252815  0.134228E-05  0.300E-01    1.08       1.0  T
   3    -11.8250868  0.194681E-03  0.189E-01    1.15       1.0  T
   4    -11.8252895 -0.202690E-03  0.352E-02    1.10       1.0  T
   5    -11.8252896 -0.103383E-06  0.303E-02    1.10       1.0  T
   6    -11.8252923 -0.264301E-05  0.990E-03    1.10       3.2  T
   7    -11.8252923 -0.179495E-07  0.793E-03    1.10       4.0  T
   8    -11.8252927 -0.366410E-06  0.376E-03    1.10       8.4  T
   9    -11.8252927 -0.263530E-07  0.359E-04    1.10      88.1  T
  10    -11.8252927 -0.497655E-09  0.121E-04    1.10     260.6  T
     SCC iter.                  ...        0 min,  0.002 sec
     gradient                   ...        0 min,  0.000 sec
 * total energy  :   -11.4794451 Eh     change       -0.4600762E-04 Eh
   gradient norm :     0.0067513 Eh/α   predicted    -0.5064772E-04 (  10.09%)
   displ. norm   :     0.0884506 α      lambda       -0.6494179E-04
   maximum displ.:     0.0345554 α      in ANC's #10, #8, #4, ...

........................................................................
.............................. CYCLE   37 ..............................
........................................................................
   1    -11.8248763 -0.118249E+02  0.316E-01    1.09       0.0  T
   2    -11.8248771 -0.809558E-06  0.201E-01    1.09       1.0  T
   3    -11.8248511  0.259721E-04  0.778E-02    1.11       1.0  T
   4    -11.8248793 -0.281700E-04  0.189E-02    1.09       1.7  T
   5    -11.8248781  0.118474E-05  0.167E-02    1.09       1.9  T
   6    -11.8248797 -0.161662E-05  0.554E-03    1.09       5.7  T
   7    -11.8248797  0.600610E-07  0.431E-03    1.09       7.3  T
   8    -11.8248798 -0.131726E-06  0.164E-03    1.09      19.3  T
   9    -11.8248798 -0.107856E-07  0.210E-04    1.09     150.2  T
  10    -11.8248798 -0.183753E-09  0.660E-05    1.09     478.9  T
     SCC iter.                  ...        0 min,  0.002 sec
     gradient                   ...        0 min,  0.000 sec
 * total energy  :   -11.4794808 Eh     change       -0.3576010E-04 Eh
   gradient norm :     0.0032681 Eh/α   predicted    -0.3272367E-04 (  -8.49%)
   displ. norm   :     0.0737711 α      lambda       -0.6084571E-04
   maximum displ.:     0.0411291 α      in ANC's #9, #7, #4, ...

........................................................................
.............................. CYCLE   38 ..............................
........................................................................
   1    -11.8257805 -0.118258E+02  0.152E-01    1.07       0.0  T
   2    -11.8257753  0.513065E-05  0.105E-01    1.06       1.0  T
   3    -11.8256919  0.834896E-04  0.105E-01    1.10       1.0  T
   4    -11.8257832 -0.913547E-04  0.178E-02    1.07       1.8  T
   5    -11.8257849 -0.170784E-05  0.107E-02    1.07       2.9  T
   6    -11.8257849 -0.166463E-07  0.525E-03    1.07       6.0  T
   7    -11.8257850 -0.565561E-07  0.334E-03    1.07       9.5  T
   8    -11.8257850 -0.528269E-07  0.198E-03    1.07      16.0  T
   9    -11.8257851 -0.872358E-08  0.190E-04    1.07     166.8  T
  10    -11.8257851 -0.583071E-10  0.721E-05    1.07     438.4  T
     SCC iter.                  ...        0 min,  0.001 sec
     gradient                   ...        0 min,  0.000 sec
 * total energy  :   -11.4795126 Eh     change       -0.3182494E-04 Eh
   gradient norm :     0.0055869 Eh/α   predicted    -0.3058873E-04 (  -3.88%)
   displ. norm   :     0.1104311 α      lambda       -0.5738124E-04
   maximum displ.:     0.0439043 α      in ANC's #4, #7, #1, ...

........................................................................
.............................. CYCLE   39 ..............................
........................................................................
   1    -11.8233224 -0.118233E+02  0.366E-01    1.07       0.0  T
   2    -11.8233236 -0.121142E-05  0.235E-01    1.06       1.0  T
   3    -11.8232870  0.366263E-04  0.924E-02    1.10       1.0  T
   4    -11.8233261 -0.390528E-04  0.283E-02    1.07       1.1  T
   5    -11.8233232  0.287659E-05  0.284E-02    1.07       1.1  T
   6    -11.8233276 -0.446964E-05  0.606E-03    1.07       5.2  T
   7    -11.8233275  0.114832E-06  0.502E-03    1.07       6.3  T
   8    -11.8233277 -0.163793E-06  0.182E-03    1.07      17.3  T
   9    -11.8233277 -0.122279E-07  0.231E-04    1.07     137.2  T
  10    -11.8233277 -0.189635E-09  0.112E-04    1.07     281.6  T
     SCC iter.                  ...        0 min,  0.002 sec
     gradient                   ...        0 min,  0.001 sec
 * total energy  :   -11.4795454 Eh     change       -0.3278404E-04 Eh
   gradient norm :     0.0047266 Eh/α   predicted    -0.2904109E-04 ( -11.42%)
   displ. norm   :     0.1245828 α      lambda       -0.6504400E-04
   maximum displ.:     0.0745947 α      in ANC's #9, #4, #7, ...

........................................................................
.............................. CYCLE   40 ..............................
........................................................................
   1    -11.8244935 -0.118245E+02  0.327E-01    1.08       0.0  T
   2    -11.8244950 -0.147478E-05  0.215E-01    1.08       1.0  T
   3    -11.8244903  0.461146E-05  0.453E-02    1.09       1.0  T
   4    -11.8244967 -0.638317E-05  0.284E-02    1.08       1.1  T
   5    -11.8244954  0.137054E-05  0.163E-02    1.08       1.9  T
   6    -11.8244975 -0.218688E-05  0.575E-03    1.08       5.5  T
   7    -11.8244976 -0.336707E-07  0.234E-03    1.08      13.5  T
   8    -11.8244975  0.298817E-07  0.209E-03    1.08      15.1  T
   9    -11.8244976 -0.440706E-07  0.178E-04    1.08     178.1  T
  10    -11.8244976 -0.489138E-10  0.112E-04    1.08     283.1  T
     SCC iter.                  ...        0 min,  0.001 sec
     gradient                   ...        0 min,  0.000 sec
 * total energy  :   -11.4795766 Eh     change       -0.3121030E-04 Eh
   gradient norm :     0.0027632 Eh/α   predicted    -0.3302586E-04 (   5.82%)
   displ. norm   :     0.0648185 α      lambda       -0.2114656E-04
   maximum displ.:     0.0328994 α      in ANC's #7, #8, #12, ...

........................................................................
.............................. CYCLE   41 ..............................
........................................................................
   1    -11.8249402 -0.118249E+02  0.122E-01    1.08       0.0  T
   2    -11.8249402 -0.582403E-07  0.776E-02    1.08       1.0  T
   3    -11.8249360  0.424166E-05  0.206E-02    1.08       1.5  T
   4    -11.8249403 -0.429862E-05  0.988E-03    1.08       3.2  T
   5    -11.8249402  0.121850E-06  0.637E-03    1.08       5.0  T
   6    -11.8249405 -0.337208E-06  0.204E-03    1.08      15.5  T
   7    -11.8249405  0.688468E-09  0.165E-03    1.08      19.1  T
   8    -11.8249405 -0.627736E-08  0.494E-04    1.08      64.0  T
   9    -11.8249405 -0.617948E-09  0.623E-05    1.08     507.5  T
     SCC iter.                  ...        0 min,  0.001 sec
     gradient                   ...        0 min,  0.000 sec
 * total energy  :   -11.4795897 Eh     change       -0.1307258E-04 Eh
   gradient norm :     0.0023361 Eh/α   predicted    -0.1061934E-04 ( -18.77%)
   displ. norm   :     0.0560310 α      lambda       -0.1447597E-04
   maximum displ.:     0.0269356 α      in ANC's #7, #4, #12, ...

........................................................................
.............................. CYCLE   42 ..............................
........................................................................
   1    -11.8247043 -0.118247E+02  0.757E-02    1.07       0.0  T
   2    -11.8247042  0.506455E-07  0.483E-02    1.07       1.0  T
[...]
   gradient norm :     0.0018685 Eh/α   predicted     0.0000000E+00 (-100.00%)
   displ. norm   :     0.0531939 α      lambda       -0.2177413E-04
   maximum displ.:     0.0367406 α      in ANC's #13, #12, #8, ...

........................................................................
.............................. CYCLE   68 ..............................
........................................................................
   1    -11.8247259 -0.118247E+02  0.168E-01    1.05       0.0  T
   2    -11.8247261 -0.160836E-06  0.106E-01    1.04       1.0  T
   3    -11.8247152  0.108827E-04  0.383E-02    1.06       1.0  T
   4    -11.8247263 -0.111651E-04  0.153E-02    1.04       2.1  T
   5    -11.8247264 -0.756071E-07  0.127E-02    1.04       2.5  T
   6    -11.8247268 -0.415971E-06  0.365E-03    1.05       8.7  T
   7    -11.8247269 -0.452913E-07  0.251E-03    1.05      12.6  T
   8    -11.8247269 -0.236615E-07  0.735E-04    1.05      43.0  T
   9    -11.8247269 -0.690648E-09  0.102E-04    1.05     309.6  T
     SCC iter.                  ...        0 min,  0.002 sec
     gradient                   ...        0 min,  0.001 sec
 * total energy  :   -11.4799802 Eh     change        0.4538060E-04 Eh
   gradient norm :     0.0030228 Eh/α   predicted    -0.1090010E-04 (-124.02%)
   displ. norm   :     0.0305874 α      lambda       -0.7381275E-04
   maximum displ.:     0.0220557 α      in ANC's #13, #12, #7, ...

........................................................................
.............................. CYCLE   69 ..............................
........................................................................
   1    -11.8254672 -0.118255E+02  0.105E-01    1.05       0.0  T
   2    -11.8254673 -0.475776E-07  0.659E-02    1.04       1.0  T
   3    -11.8254633  0.393807E-05  0.212E-02    1.05       1.5  T
   4    -11.8254675 -0.414759E-05  0.952E-03    1.05       3.3  T
   5    -11.8254672  0.305140E-06  0.695E-03    1.05       4.5  T
   6    -11.8254676 -0.391852E-06  0.193E-03    1.05      16.4  T
   7    -11.8254676 -0.608574E-08  0.980E-04    1.05      32.3  T
   8    -11.8254676 -0.641222E-09  0.324E-04    1.05      97.7  T
     SCC iter.                  ...        0 min,  0.002 sec
     gradient                   ...        0 min,  0.000 sec
 * total energy  :   -11.4800277 Eh     change       -0.4750171E-04 Eh
   gradient norm :     0.0015522 Eh/α   predicted    -0.3693932E-04 ( -22.24%)
   displ. norm   :     0.0256996 α      lambda       -0.1418630E-04
   maximum displ.:     0.0154044 α      in ANC's #12, #13, #10, ...

........................................................................
.............................. CYCLE   70 ..............................
........................................................................
   1    -11.8240969 -0.118241E+02  0.763E-02    1.04       0.0  T
   2    -11.8240969  0.149255E-07  0.477E-02    1.05       1.0  T
   3    -11.8240930  0.387725E-05  0.202E-02    1.04       1.6  T
   4    -11.8240970 -0.404876E-05  0.627E-03    1.04       5.0  T
   5    -11.8240970  0.684817E-07  0.529E-03    1.05       6.0  T
   6    -11.8240971 -0.900854E-07  0.173E-03    1.04      18.2  T
   7    -11.8240971 -0.182908E-07  0.938E-04    1.04      33.7  T
   8    -11.8240971 -0.183156E-08  0.271E-04    1.04     116.7  T
     SCC iter.                  ...        0 min,  0.002 sec
     gradient                   ...        0 min,  0.001 sec
 * total energy  :   -11.4800321 Eh     change       -0.4350987E-05 Eh
   gradient norm :     0.0012906 Eh/α   predicted    -0.7096612E-05 (  63.10%)
   displ. norm   :     0.0193693 α      lambda       -0.5022833E-05
   maximum displ.:     0.0121702 α      in ANC's #8, #10, #3, ...

........................................................................
.............................. CYCLE   71 ..............................
........................................................................
   1    -11.8247587 -0.118248E+02  0.394E-02    1.05       0.0  T
   2    -11.8247587 -0.212281E-08  0.242E-02    1.04       1.3  T
   3    -11.8247578  0.944973E-06  0.971E-03    1.05       3.3  T
   4    -11.8247588 -0.993220E-06  0.249E-03    1.05      12.7  T
   5    -11.8247587  0.205833E-07  0.208E-03    1.05      15.2  T
   6    -11.8247588 -0.224605E-07  0.699E-04    1.05      45.2  T
   7    -11.8247588 -0.196384E-08  0.489E-04    1.05      64.6  T
     SCC iter.                  ...        0 min,  0.001 sec
     gradient                   ...        0 min,  0.000 sec
 * total energy  :   -11.4800330 Eh     change       -0.9067412E-06 Eh
   gradient norm :     0.0006074 Eh/α   predicted    -0.2512339E-05 ( 177.07%)
   displ. norm   :     0.0213121 α      lambda       -0.6258838E-05
   maximum displ.:     0.0122788 α      in ANC's #13, #10, #7, ...

   *** GEOMETRY OPTIMIZATION CONVERGED AFTER 71 ITERATIONS ***

------------------------------------------------------------------------
 total energy gain   :        -0.7745459 Eh     -486.0349 kcal/mol
 total RMSD          :         2.9671632 a0        1.5702 Å
 total power (kW/mol):       -28.6418302 (step)-9672.8036 (real)
------------------------------------------------------------------------

 ANCopt (total)                0 d,  0 h,  0 min,  0.210 sec
 optimizer setup                ...        0 min,  0.000 sec (  0.014%)
 model hessian                  ...        0 min,  0.000 sec (  0.193%)
 ANC generation                 ...        0 min,  0.000 sec (  0.114%)
 coordinate transformation      ...        0 min,  0.000 sec (  0.073%)
 single point calculation       ...        0 min,  0.204 sec ( 96.828%)
 optimization log               ...        0 min,  0.002 sec (  0.939%)
 hessian update                 ...        0 min,  0.001 sec (  0.693%)
 rational function              ...        0 min,  0.001 sec (  0.609%)

================
 final structure:
================
10
 xtb: 6.5.1 (conda-forge)
Be           1.60808621377269        1.34769231432291       -1.46658375927065
C            1.25720439139009        0.81190004969626        0.09071238747952
C            1.04297004966648        0.42093770422573        1.22610594321582
C            0.80003364227748       -0.01168531790351        2.49339557306067
C            0.58943349441335       -0.38150869480458        3.62207275008120
H            0.39151421699278       -0.71235181419793        4.59751371084479
H            2.09026709241856        1.56592241206483        4.56782951585940
H            2.47753049369108        2.04744813214211        5.04579133924874
H            0.62208000698082        0.77460427882912        6.84329678853457
H            0.20888039839952        0.32597793562590        7.32736575096134

 Bond Distances (Angstroems)
 ---------------------------
Be1-C2=1.6839        C2-Be1=1.6839        C2-C3=1.2198         C3-C2=1.2198         C3-C4=1.3610         C4-C3=1.3610         
C4-C5=1.2062         C5-C4=1.2062         C5-H6=1.0489         H6-C5=1.0489         H7-H8=0.7812         H8-H7=0.7812         
H9-H10=0.7787        H10-H9=0.7787        
 H  H  Rav=0.7799 sigma=0.0013  Rmin=0.7787  Rmax=0.7812     2
 C  H  Rav=1.0489 sigma=0.0000  Rmin=1.0489  Rmax=1.0489     1
 C  Be Rav=1.6839 sigma=0.0000  Rmin=1.6839  Rmax=1.6839     1
 C  C  Rav=1.2623 sigma=0.0700  Rmin=1.2062  Rmax=1.3610     3

 selected bond angles (degree)
 --------------------
C3-C2-Be1=178.09               C4-C3-C2=179.78                C5-C4-C3=179.27                H6-C5-C4=178.99                

 selected dihedral angles (degree)
 ---------------------------------
C4-C3-C2-Be1=138.62           C5-C4-C3-C2=293.77            H6-C5-C4-C3=143.52            

 CMA Distance (Angstroems)
 ---------------------------
R(CMA):  3.8994
           -------------------------------------------------
          |                Final Singlepoint                |
           -------------------------------------------------

          ...................................................
          :                      SETUP                      :
          :.................................................:
          :  # basis functions                  25          :
          :  # atomic orbitals                  25          :
          :  # shells                           15          :
          :  # electrons                        23          :
          :  max. iterations                   250          :
          :  Hamiltonian                  GFN2-xTB          :
          :  restarted?                      false          :
          :  GBSA solvation                  false          :
          :  PC potential                    false          :
          :  electronic temp.          300.0000000     K    :
          :  accuracy                    1.0000000          :
          :  -> integral cutoff          0.2500000E+02      :
          :  -> integral neglect         0.1000000E-07      :
          :  -> SCF convergence          0.1000000E-05 Eh   :
          :  -> wf. convergence          0.1000000E-03 e    :
          :  Broyden damping             0.4000000          :
          ...................................................

 iter      E             dE          RMSdq      gap      omega  full diag
   1    -11.8247588 -0.118248E+02  0.143E-04    1.05       0.0  T
   2    -11.8247588  0.380034E-10  0.142E-04    1.05     223.4  T
   3    -11.8247588 -0.871587E-10  0.948E-05    1.05     333.6  T

   *** convergence criteria satisfied after 3 iterations ***

         #    Occupation            Energy/Eh            Energy/eV
      -------------------------------------------------------------
         1        2.0000           -0.5902892             -16.0626
       ...           ...                  ...                  ...
         6        2.0000           -0.4547908             -12.3755
         7        2.0000           -0.4278603             -11.6427
         8        2.0000           -0.4262364             -11.5985
         9        2.0000           -0.3956300             -10.7656
        10        2.0000           -0.3637363              -9.8978
        11        2.0000           -0.3634299              -9.8894
        12        1.0000           -0.2503816              -6.8132 (HOMO)
        13                         -0.2119636              -5.7678 (LUMO)
        14                         -0.2118506              -5.7647
        15                         -0.1255086              -3.4153
        16                         -0.1254058              -3.4125
        17                         -0.0149868              -0.4078
       ...                                ...                  ...
        25                          1.6028577              43.6160
      -------------------------------------------------------------
                  HL-Gap            0.0384180 Eh            1.0454 eV
             Fermi-level           -0.2691901 Eh           -7.3250 eV

 SCC (total)                   0 d,  0 h,  0 min,  0.001 sec
 SCC setup                      ...        0 min,  0.000 sec (  2.662%)
 Dispersion                     ...        0 min,  0.000 sec (  3.417%)
 classical contributions        ...        0 min,  0.000 sec (  2.940%)
 integral evaluation            ...        0 min,  0.000 sec (  6.257%)
 iterations                     ...        0 min,  0.000 sec ( 33.572%)
 molecular gradient             ...        0 min,  0.001 sec ( 48.093%)
 printout                       ...        0 min,  0.000 sec (  2.344%)

         :::::::::::::::::::::::::::::::::::::::::::::::::::::
         ::                     SUMMARY                     ::
         :::::::::::::::::::::::::::::::::::::::::::::::::::::
         :: total energy             -11.480033002418 Eh    ::
         :: gradient norm              0.000607411389 Eh/a0 ::
         :: HOMO-LUMO gap              1.045407087583 eV    ::
         ::.................................................::
         :: SCC energy               -11.824758766745 Eh    ::
         :: -> isotropic ES           -0.020084875513 Eh    ::
         :: -> anisotropic ES          0.018153909967 Eh    ::
         :: -> anisotropic XC          0.029272515078 Eh    ::
         :: -> dispersion             -0.004374346080 Eh    ::
         :: repulsion energy           0.344740321938 Eh    ::
         :: add. restraining           0.000000000000 Eh    ::
         :: total charge              -0.000000000047 e     ::
         :::::::::::::::::::::::::::::::::::::::::::::::::::::

           -------------------------------------------------
          |                Property Printout                |
           -------------------------------------------------

    * Orbital Energies and Occupations

         #    Occupation            Energy/Eh            Energy/eV
      -------------------------------------------------------------
         1        2.0000           -0.5902892             -16.0626
         2        2.0000           -0.5732678             -15.5994
         3        2.0000           -0.5274338             -14.3522
         4        2.0000           -0.4748810             -12.9222
         5        2.0000           -0.4632443             -12.6055
         6        2.0000           -0.4547908             -12.3755
         7        2.0000           -0.4278603             -11.6427
         8        2.0000           -0.4262364             -11.5985
         9        2.0000           -0.3956300             -10.7656
        10        2.0000           -0.3637363              -9.8978
        11        2.0000           -0.3634299              -9.8894
        12        1.0000           -0.2503816              -6.8132 (HOMO)
        13                         -0.2119636              -5.7678 (LUMO)
        14                         -0.2118506              -5.7647
        15                         -0.1255086              -3.4153
        16                         -0.1254058              -3.4125
        17                         -0.0149868              -0.4078
        18                         -0.0148676              -0.4046
        19                          0.0861275               2.3436
        20                          0.1295580               3.5255
        21                          0.1382557               3.7621
        22                          0.2386002               6.4926
        23                          0.4210452              11.4572
       ...                                ...                  ...
        25                          1.6028577              43.6160
      -------------------------------------------------------------
                  HL-Gap            0.0384180 Eh            1.0454 eV
             Fermi-level           -0.2691901 Eh           -7.3250 eV

     #   Z          covCN         q      C6AA      α(0)
     1   4 Be       0.841     0.343    69.420    24.971
     2   6 C        1.822    -0.254    38.830    10.068
     3   6 C        1.964    -0.019    31.578     9.075
     4   6 C        1.962    -0.012    31.400     9.049
     5   6 C        1.910    -0.105    34.021     9.420
     6   1 H        0.928     0.053     2.287     2.365
     7   1 H        0.799     0.008     2.986     2.715
     8   1 H        0.799    -0.012     3.333     2.869
     9   1 H        0.808     0.004     3.040     2.738
    10   1 H        0.808    -0.005     3.193     2.806

 Mol. C6AA /au·bohr⁶  :       1517.324612
 Mol. C8AA /au·bohr⁸  :      41176.176997
 Mol. α(0) /au        :         76.076160


Wiberg/Mayer (AO) data.
largest (>0.10) Wiberg bond orders for each atom

 ---------------------------------------------------------------------------
     #   Z sym  total        # sym  WBO       # sym  WBO       # sym  WBO
 ---------------------------------------------------------------------------
     1   4 Be   0.941 --     2 C    0.842
     2   6 C    3.745 --     3 C    2.645     1 Be   0.842     5 C    0.245
     3   6 C    3.967 --     2 C    2.645     4 C    1.220
     4   6 C    3.976 --     5 C    2.716     3 C    1.220
     5   6 C    3.950 --     4 C    2.716     6 H    0.974     2 C    0.245
     6   1 H    0.996 --     5 C    0.974
     7   1 H    1.000 --     8 H    0.992
     8   1 H    1.000 --     7 H    0.992
     9   1 H    1.000 --    10 H    0.998
    10   1 H    1.000 --     9 H    0.998
 ---------------------------------------------------------------------------

Topologies differ in total number of bonds
Writing topology from bond orders to xtbtopo.mol

molecular dipole:
                 x           y           z       tot (Debye)
 q only:        0.282       0.454      -1.420
   full:        0.113       0.206      -0.694       1.863
molecular quadrupole (traceless):
                xx          xy          yy          xz          yz          zz
 q only:        0.334       2.419       0.571      -5.799      -4.238      -0.905
  q+dip:       -3.151       2.401      -1.928      -4.674      -5.294       5.079
   full:       -0.192       1.348       0.292      -2.922      -2.475      -0.100

           -------------------------------------------------
          |                Geometry Summary                 |
           -------------------------------------------------

      molecular mass/u    :       62.0948304
   center of mass at/Å    :        1.0410518       0.4229622       1.6854429
  moments of inertia/u·Å² :        0.2105544E+02   0.2786784E+03   0.2978232E+03
rotational constants/cm⁻¹ :        0.8006308E+00   0.6049134E-01   0.5660281E-01

 * 6 selected distances

     #   Z          #   Z                                           value/Å
     1   4 Be       2   6 C                                       1.6838537 (max)
     2   6 C        3   6 C                                       1.2197814
     4   6 C        5   6 C                                       1.2062480
     5   6 C        6   1 H                                       1.0488634
     7   1 H        8   1 H                                       0.7812090
     9   1 H       10   1 H                                       0.7786671 (min)

 * 4 distinct bonds (by element types)

   Z      Z             #   av. dist./Å        max./Å        min./Å
   1 H    1 H           2     0.7799381     0.7812090     0.7786671
   1 H    6 C           1     1.0488634     1.0488634     1.0488634
   4 Be   6 C           1     1.6838537     1.6838537     1.6838537
   6 C    6 C           2     1.2130147     1.2197814     1.2062480


optimized geometry written to: xtbopt.xyz


           -------------------------------------------------
          | TOTAL ENERGY              -11.480033002418 Eh   |
          | GRADIENT NORM               0.000607411389 Eh/α |
          | HOMO-LUMO GAP               1.045407087583 eV   |
           -------------------------------------------------
########################################################################
[WARNING] Runtime exception occurred
-3- restart_readRestart: Dimension missmatch in restart file.
-2- restart_readRestart: Multiplicity missmatch in restart file.
-1- restart_readRestart: Number of electron missmatch in restart file.
Note: The following floating-point exceptions are signalling: IEEE_UNDERFLOW_FLAG
normal termination of xtb
########################################################################

------------------------------------------------------------------------
 * finished run on 2025/06/07 at 03:27:56.348     
------------------------------------------------------------------------
 total:
 * wall-time:     0 d,  0 h,  0 min,  0.248 sec
 *  cpu-time:     0 d,  0 h,  0 min,  3.481 sec
 * ratio c/w:    14.033 speedup
 SCF:
 * wall-time:     0 d,  0 h,  0 min,  0.033 sec
 *  cpu-time:     0 d,  0 h,  0 min,  0.467 sec
 * ratio c/w:    14.153 speedup
 ANC optimizer:
 * wall-time:     0 d,  0 h,  0 min,  0.212 sec
 *  cpu-time:     0 d,  0 h,  0 min,  2.977 sec
 * ratio c/w:    14.047 speedup

