System,Formula,Pressure (GPa),λ,ω_log (K),Tc (K),Regime,RT Potential,LN2 Access
CaH10,CaH10,170.0,3.199,3659.6,997.0,Very strong coupling,🔥 YES,✅ YES
ScH9,ScH9,150.0,2.912,3581.5,918.0,Very strong coupling,🔥 YES,✅ YES
YH9,YH9,200.0,3.045,3409.0,899.7,Very strong coupling,🔥 YES,✅ YES
Li2BH12,Li2BH12,50.0,2.180,3605.9,746.4,Very strong coupling,🔥 YES,✅ YES
Be4CH10,Be4CH10,100.0,1.982,3665.3,700.2,Very strong coupling,🔥 YES,✅ YES
MgFe,MgFe,0.001,0.880,691.1,45.8,Strong coupling,❄️ NO,❌ NO