{
  "YH9": {
    "system": "YH9",
    "system_info": {
      "name": "Yttrium hydride",
      "formula": "YH9",
      "lattice_params": {
        "a": 5.12,
        "c": 8.31
      },
      "space_group": "P6/mmm",
      "pressure_GPa": 200.0,
      "nat": 10,
      "experimental_reference": "Drozdov et al. Nature 2019"
    },
    "scf": {
      "total_energy_Ry": -9999.928244867066,
      "iterations": 15,
      "converged": true,
      "fermi_energy_eV": 14.43289763104133,
      "band_gap_eV": 0.0,
      "lattice_params": {
        "a": 5.12,
        "c": 8.31
      }
    },
    "phonon": {
      "frequencies_cm1": [
        6.8609086108656125,
        9.89360348676363,
        16.77113906622442,
        2047.4048106576479,
        2047.5312310534177,
        2061.508378048288,
        2070.05660053655,
        2097.433889117609,
        2153.151937316462,
        2153.891808284182,
        2162.639446415663,
        2171.6192819848516,
        2214.9702087250985,
        2222.8518444999645,
        2263.2992728033028,
        2286.5783007623018,
        2337.805749628029,
        2365.4483155859684,
        2402.9165476932644,
        2422.6361712455064,
        2443.0427693102984,
        2547.2636213013757,
        2552.7976887613945,
        2574.623205806518,
        2654.534768193968,
        2684.553376110779,
        2754.113723345124,
        2799.638432495789,
        2842.851652009278,
        2974.5839902013513
      ],
      "omega_avg_cm1": 2144.775755768595,
      "omega_log_cm1": 2367.367061821889,
      "omega_log_K": 3409.00856902352,
      "imaginary_modes": 0,
      "stable": true
    },
    "epw": {
      "lambda_ep": 3.0446120090033735,
      "mu_star": 0.1,
      "wannier_spread": 2.9911069544825417,
      "convergence": "achieved"
    },
    "superconductivity": {
      "tc_allen_dynes_K": 899.7282827959114,
      "tc_mcmillan_K": 0,
      "tc_strong_K": 818.2070496347019,
      "coupling_regime": "Very strong coupling",
      "rt_potential": "True",
      "liquid_nitrogen_accessible": "True"
    },
    "timestamp": 1749244807.9611468
  },
  "ScH9": {
    "system": "ScH9",
    "system_info": {
      "name": "Scandium hydride",
      "formula": "ScH9",
      "lattice_params": {
        "a": 4.98,
        "c": 8.15
      },
      "space_group": "P6/mmm",
      "pressure_GPa": 150.0,
      "nat": 10,
      "experimental_reference": "Theoretical prediction"
    },
    "scf": {
      "total_energy_Ry": -9999.926044189971,
      "iterations": 15,
      "converged": true,
      "fermi_energy_eV": 13.4499560370217,
      "band_gap_eV": 0.0,
      "lattice_params": {
        "a": 4.98,
        "c": 8.15
      }
    },
    "phonon": {
      "frequencies_cm1": [
        1.5501442825031186,
        16.23646346182192,
        33.64141126253675,
        2002.9391928951227,
        2012.2790863119503,
        2126.9763135485578,
        2154.714561273367,
        2207.7755624365673,
        2232.5996654752134,
        2234.876332424235,
        2266.062142563155,
        2337.644731223984,
        2356.5340418554556,
        2407.746829554544,
        2467.471983053637,
        2565.4285370817247,
        2572.1549455324985,
        2579.282285133977,
        2597.8325716849663,
        2598.060434811823,
        2613.4062539581028,
        2647.8884408266395,
        2672.0787660430606,
        2701.1788125179346,
        2827.9977256588327,
        2830.457442622929,
        2856.9805694733122,
        2868.333164713469,
        2870.456121540824,
        2962.7708503481126
      ],
      "omega_avg_cm1": 2254.1118461190285,
      "omega_log_cm1": 2487.151781928294,
      "omega_log_K": 3581.498565976743,
      "imaginary_modes": 0,
      "stable": true
    },
    "epw": {
      "lambda_ep": 2.912498798720184,
      "mu_star": 0.1,
      "wannier_spread": 2.9639180700125722,
      "convergence": "achieved"
    },
    "superconductivity": {
      "tc_allen_dynes_K": 918.0077561403517,
      "tc_mcmillan_K": 0,
      "tc_strong_K": 846.8948271170085,
      "coupling_regime": "Very strong coupling",
      "rt_potential": "True",
      "liquid_nitrogen_accessible": "True"
    },
    "timestamp": 1749244808.464996
  },
  "CaH10": {
    "system": "CaH10",
    "system_info": {
      "name": "Calcium hydride",
      "formula": "CaH10",
      "lattice_params": {
        "a": 5.25,
        "c": 7.89
      },
      "space_group": "Fm-3m",
      "pressure_GPa": 170.0,
      "nat": 11,
      "experimental_reference": "Song et al. PRL 2021"
    },
    "scf": {
      "total_energy_Ry": -10999.929414850349,
      "iterations": 15,
      "converged": true,
      "fermi_energy_eV": 12.691501170091906,
      "band_gap_eV": 0.0,
      "lattice_params": {
        "a": 5.25,
        "c": 7.89
      }
    },
    "phonon": {
      "frequencies_cm1": [
        22.9666879247395,
        35.84002464393613,
        41.81510430281581,
        2059.3578965273073,
        2090.7687662098856,
        2148.8981184210293,
        2229.8434859924973,
        2254.524572814469,
        2381.541745849717,
        2388.8561895630546,
        2408.8293646038,
        2425.5234048582556,
        2433.6072615142143,
        2436.9779663080685,
        2481.069338787302,
        2487.9288365399657,
        2534.603141399575,
        2549.9114748456805,
        2550.265576712693,
        2585.597189138847,
        2609.2895088476453,
        2622.724397507114,
        2628.862639788552,
        2644.526718849879,
        2662.820983443974,
        2723.8365480634857,
        2769.631663583282,
        2787.981545255422,
        2815.028541025556,
        2933.39981498846,
        2978.9827769253457,
        2995.792540091126,
        2996.789849998632
      ],
      "omega_avg_cm1": 2324.799808343222,
      "omega_log_cm1": 2541.385962636286,
      "omega_log_K": 3659.5957861962515,
      "imaginary_modes": 0,
      "stable": true
    },
    "epw": {
      "lambda_ep": 3.1992915117356424,
      "mu_star": 0.1,
      "wannier_spread": 2.516612481642615,
      "convergence": "achieved"
    },
    "superconductivity": {
      "tc_allen_dynes_K": 997.0320886234957,
      "tc_mcmillan_K": 0,
      "tc_strong_K": 892.4107307380982,
      "coupling_regime": "Very strong coupling",
      "rt_potential": "True",
      "liquid_nitrogen_accessible": "True"
    },
    "timestamp": 1749244808.9702132
  },
  "Li2BH12": {
    "system": "Li2BH12",
    "system_info": {
      "name": "Lithium borohydride",
      "formula": "Li2BH12",
      "lattice_params": {
        "a": 6.82,
        "c": 9.45
      },
      "space_group": "P4/mmm",
      "pressure_GPa": 50.0,
      "nat": 15,
      "experimental_reference": "Novel prediction"
    },
    "scf": {
      "total_energy_Ry": -14999.92991507649,
      "iterations": 15,
      "converged": true,
      "fermi_energy_eV": 12.673926540987779,
      "band_gap_eV": 0.0,
      "lattice_params": {
        "a": 6.82,
        "c": 9.45
      }
    },
    "phonon": {
      "frequencies_cm1": [
        11.92432046061896,
        16.276957755820558,
        44.48350587383062,
        2009.318942141936,
        2035.421308981158,
        2060.1652738643875,
        2110.6682284111134,
        2118.330767458399,
        2124.9664261520475,
        2142.5245699568873,
        2150.6256082541076,
        2174.411931888181,
        2178.378299600271,
        2209.5728512054116,
        2230.0971545564366,
        2277.042021425806,
        2282.0355206127124,
        2321.070253564881,
        2335.9211283530367,
        2346.6897624433095,
        2351.7418932381015,
        2389.1386350927028,
        2498.558911047923,
        2519.9925210984657,
        2566.3048580046557,
        2591.3882831684805,
        2634.226009939337,
        2642.6821254674633,
        2674.542144283737,
        2685.491977104351,
        2723.097393939796,
        2789.6201336126433,
        2801.544531476558,
        2865.5789835225696,
        2896.2479049918848,
        2904.2299303787577,
        2919.606651207581,
        2922.4787575080773,
        2922.914773020895,
        2924.019640907598,
        2925.093888881559,
        2940.413799074274,
        2942.350950939004,
        2947.0858385875044,
        2963.550352747522
      ],
      "omega_avg_cm1": 2358.2627938267065,
      "omega_log_cm1": 2504.0768228052057,
      "omega_log_K": 3605.870624839496,
      "imaginary_modes": 0,
      "stable": true
    },
    "epw": {
      "lambda_ep": 2.1795096646875383,
      "mu_star": 0.1,
      "wannier_spread": 2.873586236270909,
      "convergence": "achieved"
    },
    "superconductivity": {
      "tc_allen_dynes_K": 746.415532158722,
      "tc_mcmillan_K": 0,
      "tc_strong_K": 759.6725162954331,
      "coupling_regime": "Very strong coupling",
      "rt_potential": "True",
      "liquid_nitrogen_accessible": "True"
    },
    "timestamp": 1749244809.475481
  },
  "Be4CH10": {
    "system": "Be4CH10",
    "system_info": {
      "name": "Beryllium carbon hydride",
      "formula": "Be4CH10",
      "lattice_params": {
        "a": 7.12,
        "c": 8.89
      },
      "space_group": "I4/mmm",
      "pressure_GPa": 100.0,
      "nat": 15,
      "experimental_reference": "Novel prediction"
    },
    "scf": {
      "total_energy_Ry": -14999.927124567797,
      "iterations": 15,
      "converged": true,
      "fermi_energy_eV": 12.708275461744114,
      "band_gap_eV": 0.0,
      "lattice_params": {
        "a": 7.12,
        "c": 8.89
      }
    },
    "phonon": {
      "frequencies_cm1": [
        17.08895964427699,
        22.253080628459145,
        47.638819063508365,
        2032.1164200423482,
        2053.105819724246,
        2086.9401951115947,
        2100.6728536210817,
        2128.9912348956223,
        2203.3208821610338,
        2216.790372906582,
        2254.702032229593,
        2274.9405955303455,
        2282.468962550674,
        2369.0988070242765,
        2380.1612714658727,
        2387.2324422658103,
        2390.994211548142,
        2448.7980825006657,
        2453.5253547631423,
        2550.083109073293,
        2570.260243701949,
        2571.136084108823,
        2597.871265065213,
        2598.4937024983565,
        2627.540514152614,
        2643.9926562771775,
        2648.321080848651,
        2689.33993154072,
        2698.2890177626487,
        2703.706065791242,
        2712.1342891890017,
        2722.0064490076375,
        2723.6780507831145,
        2730.121716390901,
        2772.598794185248,
        2825.886512290659,
        2832.800997940781,
        2834.1786840320183,
        2847.3792416334863,
        2850.3101534005364,
        2911.931194157137,
        2932.2605680018596,
        2941.3393251531893,
        2961.876434804404,
        2985.336156377052
      ],
      "omega_avg_cm1": 2391.8602807965553,
      "omega_log_cm1": 2545.377763003775,
      "omega_log_K": 3665.3439787254356,
      "imaginary_modes": 0,
      "stable": true
    },
    "epw": {
      "lambda_ep": 1.982031383073054,
      "mu_star": 0.1,
      "wannier_spread": 2.512135618428262,
      "convergence": "achieved"
    },
    "superconductivity": {
      "tc_allen_dynes_K": 700.1703860626905,
      "tc_mcmillan_K": 0,
      "tc_strong_K": 737.6963553167928,
      "coupling_regime": "Very strong coupling",
      "rt_potential": "True",
      "liquid_nitrogen_accessible": "True"
    },
    "timestamp": 1749244809.981049
  },
  "MgFe": {
    "system": "MgFe",
    "system_info": {
      "name": "Magnesium iron (RBT)",
      "formula": "MgFe",
      "lattice_params": {
        "a": 4.0,
        "c": 4.0
      },
      "space_group": "Pm-3m",
      "pressure_GPa": 0.001,
      "nat": 2,
      "experimental_reference": "RBT theory prediction"
    },
    "scf": {
      "total_energy_Ry": -1999.9318012788644,
      "iterations": 15,
      "converged": true,
      "fermi_energy_eV": 13.17649576342162,
      "band_gap_eV": 0.0,
      "lattice_params": {
        "a": 4.0,
        "c": 4.0
      }
    },
    "phonon": {
      "frequencies_cm1": [
        1.4111840678536491,
        37.79151941907804,
        48.37499162014081,
        433.53041684417536,
        434.2562849667631,
        587.1853089998092
      ],
      "omega_avg_cm1": 257.09161765297,
      "omega_log_cm1": 479.93264219975663,
      "omega_log_K": 691.1030047676495,
      "imaginary_modes": 0,
      "stable": true
    },
    "epw": {
      "lambda_ep": 0.8796156111179002,
      "mu_star": 0.1,
      "wannier_spread": 2.704606077296932,
      "convergence": "achieved"
    },
    "superconductivity": {
      "tc_allen_dynes_K": 45.75594212754048,
      "tc_mcmillan_K": 38.86082027690313,
      "tc_strong_K": 0,
      "coupling_regime": "Strong coupling",
      "rt_potential": "False",
      "liquid_nitrogen_accessible": "False"
    },
    "timestamp": 1749244810.483998
  }
}